72
 energy: -106.025144319863 gnorm: 0.000026337881 xtb: 6.7.1 (edcfbbe)
C            6.54901011774824        0.19887768013615        0.01430463241143
O            5.90452054977365        0.32891172148167       -1.23493226579240
C            4.70589280188543        0.94271285721359       -1.29613964687325
C            4.17498730071956        1.13358171089804       -2.57835177410020
C            2.95545812545709        1.75138093831467       -2.75054605322401
C            2.21692685219394        2.17251963522108       -1.65319357649201
C            2.73914503784886        1.96506801153829       -0.39033538838801
S            1.75533108832178        2.43465765867167        1.03136087805487
S            1.58700460636989        0.61774607160986        1.94899897362538
P            0.14200906501607       -0.39913088031554        0.77751853176720
N            0.56558334933793       -1.83585232200728        0.11984261409200
C            1.75040167723192       -1.77301281831101       -0.75576331143016
C            1.55927372684105       -2.67458740630713       -1.97252528577395
C            3.04902386029261       -2.10185518392792       -0.02631497605893
C            0.25732624013963       -3.11422453677487        0.78266717978200
C            0.56198190410103       -3.09052366045410        2.27613278574616
C           -1.18825594980334       -3.50584961030484        0.50012436280031
O           -0.14284095181324        0.67891543242394       -0.33836116374594
C           -1.20260290523491        0.39237990911425       -1.24094584165563
C           -0.88775393088879       -0.14666036518029       -2.48050236234403
C           -1.89998478471807       -0.51994253831304       -3.34621301716436
C           -3.22929290359260       -0.40841448723901       -2.96247044497396
C           -3.52750961584078        0.15467021481900       -1.73913616879627
C           -2.51688058950991        0.60691975119364       -0.88283767560320
C           -3.12940084359039        1.34037484203887        0.27923940262619
C           -4.52247819647839        0.66798933726127        0.35346737096632
C           -4.87122236175868        0.35344677826444       -1.10735306463259
C           -3.28084927203319        2.85214083912274       -0.02891311984988
C           -3.52554796323788        3.49924202793587        1.34130146609550
C           -2.78961917295650        2.58883542968458        2.27604048939816
C           -2.39335885143996        2.82002227683409        3.57712910499615
C           -1.65318076521712        1.85064973820096        4.24043327961855
C           -1.26629294389992        0.69402255202473        3.58718491701220
C           -1.67603400009302        0.47338567202735        2.27894931393813
C           -2.46784448886715        1.39274220545204        1.62676720456049
O           -1.18304301538757       -0.66643021521935        1.58410793187482
C            3.97611898627749        1.37145438625622       -0.19132955126415
H            7.51152596291002       -0.26065709889889       -0.20069966432229
H            5.98366031140890       -0.44749200845287        0.69286880042999
H            6.71023058847505        1.17337205703836        0.48293813416735
H            4.75480021114558        0.79609195586189       -3.42207642309757
H            2.56766203156835        1.90609718402413       -3.74532005375806
H            1.25897910564820        2.65148325722451       -1.77420910954601
H            1.81050398147020       -0.73124389364547       -1.09848442311219
H            1.69758482343495       -3.72086097959397       -1.71472418315223
H            2.29418533005026       -2.41606205353306       -2.72989650365732
H            0.56434621409916       -2.55083203048819       -2.39116769521670
H            3.88412415819031       -1.94803462740359       -0.70468568867661
H            3.06655375997696       -3.13721432406355        0.30322407928273
H            3.18041542892617       -1.45654644420364        0.83989098321325
H            0.90823788624975       -3.85144026057993        0.30823727811204
H            0.51469553212560       -4.10113734306170        2.67372977007335
H            1.55848345968563       -2.69479292612125        2.46179006963663
H           -0.16443085587292       -2.48521008678114        2.81069030219539
H           -1.38030258991970       -3.49282658130738       -0.56978868396553
H           -1.37237372264641       -4.50935499325936        0.87390563135908
H           -1.87892588776891       -2.82410478296703        0.98647513921309
H            0.14790659990151       -0.25273975748951       -2.75941548520922
H           -1.64809866763767       -0.92729188675722       -4.31246412479793
H           -4.01736525025896       -0.75291379983924       -3.61333193579277
H           -5.25838253707202        1.30490754238079        0.83713474484092
H           -4.44352496969133       -0.25917772482686        0.92432437445059
H           -5.50234769790725       -0.52901308415037       -1.20527886254982
H           -5.39435308003416        1.18649306338173       -1.58145351126744
H           -4.08005116908776        3.04738966919320       -0.73909310626815
H           -2.34654057873533        3.22669696422803       -0.45158196538927
H           -3.15533961484702        4.52233569435144        1.39149603977941
H           -4.58892480565525        3.51972160882974        1.58879549948030
H           -2.64388126378115        3.74656392919113        4.06904769119606
H           -1.34027745337516        2.01180467368813        5.25935684846883
H           -0.64024879279739       -0.03624827388843        4.07630387313905
H            4.34547076860362        1.24607470849299        0.81405640952603
