72
 energy: -106.002030302690 gnorm: 0.114945908896 xtb: 6.7.1 (edcfbbe)
C            6.92433500000000        0.67865000000000       -0.03213400000000
O            6.28901000000000        0.83340900000000       -1.29557700000000
C            4.99547200000000        1.27988500000000       -1.28551400000000
C            4.44345700000000        1.49602900000000       -2.55062000000000
C            3.13387200000000        1.95630100000000       -2.68642900000000
C            2.36332500000000        2.19795900000000       -1.55049900000000
C            2.89784600000000        1.97096200000000       -0.27866500000000
S            1.89069300000000        2.26561700000000        1.16641500000000
S            1.71675200000000        0.37383500000000        1.94899600000000
P            0.15526700000000       -0.42157500000000        0.77674400000000
N            0.58518300000000       -1.89671200000000        0.16064300000000
C            1.73232200000000       -1.99147300000000       -0.76231800000000
C            1.45541200000000       -2.91468600000000       -1.95838400000000
C            3.03958700000000       -2.41203800000000       -0.08215900000000
C            0.18530700000000       -3.16755400000000        0.77975200000000
C            0.45125000000000       -3.21088000000000        2.28636600000000
C           -1.27828100000000       -3.48527200000000        0.46230900000000
O           -0.25326500000000        0.57859900000000       -0.43962800000000
C           -1.30677600000000        0.28987400000000       -1.24909800000000
C           -1.05040300000000       -0.29422500000000       -2.49015600000000
C           -2.10235100000000       -0.70852900000000       -3.31804900000000
C           -3.42296400000000       -0.54180000000000       -2.90994300000000
C           -3.65977400000000        0.08115500000000       -1.69399400000000
C           -2.61112100000000        0.55527000000000       -0.88210500000000
C           -3.18077800000000        1.33855400000000        0.26901800000000
C           -4.58328600000000        0.67871500000000        0.36676200000000
C           -4.99533000000000        0.36112100000000       -1.07713800000000
C           -3.30463000000000        2.85286800000000       -0.05166600000000
C           -3.56778700000000        3.54546600000000        1.29466700000000
C           -2.80647400000000        2.65008300000000        2.22272600000000
C           -2.41789200000000        2.93062800000000        3.52391100000000
C           -1.68927100000000        1.96641200000000        4.21900900000000
C           -1.32999200000000        0.76485900000000        3.59435000000000
C           -1.70668500000000        0.51677900000000        2.27338900000000
C           -2.50594900000000        1.42187700000000        1.60809700000000
O           -1.21561800000000       -0.58151700000000        1.63859600000000
C            4.21978900000000        1.52076100000000       -0.15009100000000
H            7.95370800000000        0.35527500000000       -0.21245100000000
H            6.43231400000000       -0.09640100000000        0.56416700000000
H            6.96438600000000        1.62992500000000        0.50918100000000
H            5.04432500000000        1.31083100000000       -3.43814600000000
H            2.71543700000000        2.12683300000000       -3.67468900000000
H            1.34104100000000        2.55202000000000       -1.66583500000000
H            1.89820900000000       -0.99348600000000       -1.18383900000000
H            1.49712800000000       -3.97479200000000       -1.68735000000000
H            2.20634200000000       -2.75099600000000       -2.73965200000000
H            0.47354500000000       -2.72422900000000       -2.40082800000000
H            3.87194400000000       -2.35961300000000       -0.79285600000000
H            2.99505000000000       -3.44012200000000        0.29143700000000
H            3.29169600000000       -1.76152100000000        0.75764500000000
H            0.75883700000000       -4.00017100000000        0.35634700000000
H            0.28051500000000       -4.22352800000000        2.66711000000000
H            1.48995000000000       -2.94982300000000        2.51305200000000
H           -0.20672800000000       -2.54358600000000        2.84678600000000
H           -1.44967100000000       -3.48531300000000       -0.61942900000000
H           -1.53683900000000       -4.48361300000000        0.83404000000000
H           -1.97716800000000       -2.77916500000000        0.91564700000000
H           -0.02473700000000       -0.44602200000000       -2.81157300000000
H           -1.88365700000000       -1.17948800000000       -4.27298800000000
H           -4.24285900000000       -0.88252600000000       -3.53524500000000
H           -5.33305100000000        1.29849000000000        0.87007900000000
H           -4.51673000000000       -0.26053600000000        0.93585800000000
H           -5.66207700000000       -0.50471800000000       -1.11716700000000
H           -5.46748300000000        1.22105100000000       -1.56202900000000
H           -4.08373200000000        3.09064300000000       -0.78383900000000
H           -2.35735600000000        3.22559100000000       -0.46860900000000
H           -3.18207500000000        4.56908900000000        1.29429300000000
H           -4.63210700000000        3.54491400000000        1.54986300000000
H           -2.67003300000000        3.87660300000000        3.99299900000000
H           -1.37130200000000        2.15737000000000        5.24057900000000
H           -0.72543900000000        0.04021600000000        4.13316600000000
H            4.61836400000000        1.36139200000000        0.84669300000000
72
 energy: -106.016739943559 gnorm: 0.058641031898 xtb: 6.7.1 (edcfbbe)
C            6.92186529180110        0.67805466035756       -0.02848023286730
O            6.27594406898965        0.83531466536216       -1.27870252586818
C            4.99182886111961        1.27771656054356       -1.28460966469406
C            4.43589933219274        1.49464365403568       -2.54921548233457
C            3.13590970795287        1.95052442698171       -2.67916601964852
C            2.36298662398034        2.18801481812503       -1.55174588608679
C            2.90926433274397        1.96745193433630       -0.29546174014803
S            1.92568137461805        2.32941905885185        1.15113132682439
S            1.67440715172997        0.43657738902652        1.88584630035783
P            0.14456121545789       -0.47076702743447        0.76352924184178
N            0.56946212726862       -1.93626755043876        0.14638247717235
C            1.72972122655888       -1.98821049599503       -0.76557141319070
C            1.44647307870145       -2.91170827750486       -1.95427486013771
C            3.02955709077012       -2.40656988880215       -0.07471746448719
C            0.16739553979514       -3.19166018148775        0.78791618614254
C            0.44657861642421       -3.21009695226496        2.28969223266528
C           -1.29221167315746       -3.49412244897893        0.46410436457806
O           -0.22179583131120        0.56682997120508       -0.42043264453841
C           -1.29912921848741        0.28863550038418       -1.25088331234403
C           -1.04770222990702       -0.30755211354074       -2.48518988053796
C           -2.09119454408732       -0.69899343950776       -3.31296090035360
C           -3.40728350711715       -0.53117560389163       -2.90716582441902
C           -3.64988516303490        0.09593394657494       -1.70131311672038
C           -2.60789891726662        0.55609619480474       -0.88301356048307
C           -3.18453839442376        1.34114276221359        0.26898751681610
C           -4.58814259548463        0.68951931923733        0.38310328518800
C           -4.97856005487995        0.36424555372004       -1.06492942873689
C           -3.31240243517172        2.85028686975898       -0.06948785935481
C           -3.55867911240505        3.52896566165216        1.28635312490054
C           -2.81272689138477        2.63656225386023        2.22986894289447
C           -2.41559168830312        2.91185458732143        3.52326627517306
C           -1.68665368053742        1.95217351710594        4.21262677378298
C           -1.30938319349388        0.77132587975867        3.58593840333759
C           -1.69275590770852        0.51236207588871        2.27021792619261
C           -2.49930251151704        1.42134261867705        1.60769561819207
O           -1.21037081474489       -0.62222511952049        1.62632318988768
C            4.21888577686499        1.51794236124900       -0.15238581148136
H            7.94333475690544        0.35757255627495       -0.23946482065175
H            6.43006214341334       -0.09146683147812        0.57310114072448
H            6.95708227644793        1.62542058642789        0.51591541507112
H            5.04020204226516        1.31075042428547       -3.42614430057104
H            2.72121704101706        2.12600612387222       -3.66125647581109
H            1.34946800466346        2.55213563821015       -1.65452008589211
H            1.87430212766513       -0.97294474720888       -1.16090417402791
H            1.49563821493289       -3.96380441546147       -1.67756256388005
H            2.19920013174986       -2.74043366057423       -2.72325627065061
H            0.46649608718447       -2.71833672958978       -2.38697376725442
H            3.84960040508647       -2.34956067822027       -0.79067470832615
H            2.98190922538661       -3.43221655004793        0.28891844861910
H            3.27044227432107       -1.75452476832563        0.76363301495901
H            0.76990970916493       -3.98608835631208        0.34026945587599
H            0.27892206501476       -4.21709727439395        2.67060488233033
H            1.48180269241224       -2.93977958109200        2.50086789025157
H           -0.21116407076721       -2.53469066540663        2.83313816471802
H           -1.45102199534638       -3.48183466740710       -0.61416732290922
H           -1.54515996962771       -4.48585031461936        0.83633702855110
H           -1.96739627654959       -2.77346888819901        0.92084712585946
H           -0.02555584491552       -0.45542428794537       -2.80101765212533
H           -1.87334967715371       -1.16482181698646       -4.26365900304635
H           -4.22438934381176       -0.88227556841943       -3.52180395104145
H           -5.32033905519340        1.32027945641955        0.88650593464701
H           -4.50544565025967       -0.24443348413902        0.94860516158127
H           -5.64916060634495       -0.49327478550271       -1.12463361476672
H           -5.46354595416237        1.21302466138116       -1.55105013546625
H           -4.09263312518911        3.06780354278781       -0.79857756584160
H           -2.36201751097980        3.20805871835808       -0.47903580230227
H           -3.18723947697690        4.55388796474855        1.30282109569901
H           -4.62018721325155        3.54442630884672        1.54110873229472
H           -2.65813614423391        3.85809660964320        3.98598721588520
H           -1.37513177758248        2.13902957379369        5.23041245782984
H           -0.71138801812937        0.04631534150341        4.12002984637785
H            4.61345846029886        1.36593442311161        0.84232364577446
72
 energy: -106.021214786580 gnorm: 0.027192155400 xtb: 6.7.1 (edcfbbe)
C            6.91530011982202        0.67777170463738       -0.02226850814925
O            6.26015066097323        0.83479482170906       -1.26193807873163
C            4.98660259989812        1.27672184350334       -1.28318239137839
C            4.43069513006357        1.49182743471862       -2.55068777710235
C            3.13837679595292        1.94530186262093       -2.68325812777651
C            2.36110399187599        2.19394424679176       -1.56439258113674
C            2.91451342584025        1.98378578150780       -0.31870472839900
S            1.88684841494299        2.29445902077724        1.10890026611139
S            1.66175343644202        0.42835815800436        1.89178412093972
P            0.13796456909325       -0.48655813648230        0.75090039820290
N            0.54968629179412       -1.94969971408491        0.14002649147987
C            1.71867516851639       -1.97561456502841       -0.76298567540514
C            1.44083364040642       -2.89615535653682       -1.95138642373305
C            3.01332160135154       -2.38986166121242       -0.06566013694549
C            0.15053344602461       -3.20234960380312        0.79488887382556
C            0.43712301861071       -3.20781226624214        2.29176728819505
C           -1.30612812935882       -3.50285692344646        0.47206117390007
O           -0.19202625465230        0.57053585833670       -0.40640722226992
C           -1.28959254372878        0.28945286127151       -1.25387770563691
C           -1.03694655985113       -0.31520670796287       -2.48068342116683
C           -2.07505802150355       -0.69440116056881       -3.30729146389031
C           -3.38990165216113       -0.52649034647268       -2.90272137101286
C           -3.63765151130878        0.10222004291364       -1.70273002909970
C           -2.59792940861024        0.55473698644555       -0.88326290959166
C           -3.17700110762434        1.33915317307588        0.26741650944638
C           -4.57996385116488        0.69258039702433        0.39121007954253
C           -4.96356483999480        0.36584996279460       -1.05694648737033
C           -3.30994289696530        2.84416067053465       -0.07884444119312
C           -3.55155632735159        3.51572527843981        1.27954221300980
C           -2.80836363093783        2.62534706015674        2.22835865396510
C           -2.40671443192641        2.89332487290226        3.51834566819160
C           -1.67546406769088        1.93458318754401        4.20214720297348
C           -1.28621403050679        0.76796746938697        3.57305446344503
C           -1.67701469365416        0.50840477734638        2.26256797421077
C           -2.48591532962242        1.41762956681816        1.60284303250161
O           -1.19686188148574       -0.65296600318497        1.60710217214227
C            4.21279846037660        1.52651076352920       -0.15437189390380
H            7.92860019516044        0.35999704505802       -0.26286168067209
H            6.42951770476244       -0.08834903809372        0.58846514912456
H            6.95191364613915        1.62142351771220        0.52713896385387
H            5.04483429988441        1.30813771452467       -3.41531405780274
H            2.72807782951288        2.11860001033855       -3.66356013688867
H            1.34938429472137        2.55144432844021       -1.65672513661159
H            1.84149307037195       -0.94632702064950       -1.13244180625335
H            1.49506187800280       -3.94182661389137       -1.66576489283836
H            2.19244788134685       -2.72351881345149       -2.71558245443799
H            0.45994474885270       -2.70415486734956       -2.37352190350082
H            3.82799041262722       -2.32881492293200       -0.78191667348915
H            2.96090474115791       -3.41382458943568        0.29172481325397
H            3.23930358766367       -1.73588667968963        0.77271095655514
H            0.77171228492227       -3.97182078915528        0.32998780327558
H            0.27381118700901       -4.20884796221791        2.68029646123553
H            1.46953833243706       -2.92690996689152        2.48721330152271
H           -0.22144893221786       -2.52449303185959        2.81887885672108
H           -1.45868132661192       -3.48079671108577       -0.60328580295145
H           -1.56193700753002       -4.48962614349778        0.84226940249459
H           -1.96254610315015       -2.77160968668265        0.93235153961645
H           -0.01471041559135       -0.46425928840801       -2.78530114698640
H           -1.85727691493254       -1.15249091804635       -4.25755857364536
H           -4.20520297007056       -0.87681360102931       -3.51443524682398
H           -5.29578881485371        1.33930354697007        0.88910875836521
H           -4.49381893031964       -0.23332980246172        0.96183536800836
H           -5.63650740822325       -0.48695539447001       -1.13143118664251
H           -5.45818642053425        1.20972903871752       -1.54148761423820
H           -4.09740893605324        3.03980408377949       -0.80021604832746
H           -2.36343481469234        3.19522745369169       -0.49256991538324
H           -3.19027768786395        4.54237076594083        1.30984079497739
H           -4.61299385832802        3.53934653349026        1.53257994293122
H           -2.65343695088473        3.83415217871055        3.98288931636815
H           -1.37234339427476        2.11433944289622        5.21979427365551
H           -0.67936600543431        0.04590429913996        4.09478543462418
H            4.59836019510873        1.37570152412381        0.84078793271967
72
 energy: -106.022687828305 gnorm: 0.013915484455 xtb: 6.7.1 (edcfbbe)
C            6.90843397622061        0.67651736012463       -0.01627650682242
O            6.24888712110909        0.83229131552446       -1.25270845215952
C            4.97910460476830        1.27440143974946       -1.27876081386529
C            4.42686190255569        1.48722889741057       -2.54975039073164
C            3.13667260333874        1.94289322568892       -2.68941404788693
C            2.35131953364217        2.19060045610958       -1.57324509875832
C            2.90047674769084        1.97582442303243       -0.32573561924475
S            1.87271655567009        2.33468071755135        1.09687044765420
S            1.66267417811181        0.45627122109029        1.85752577194821
P            0.12807604244000       -0.49036103102236        0.74468394282106
N            0.52819748026102       -1.95382070409639        0.13659666931980
C            1.70117315157801       -1.96694416636492       -0.76031160187980
C            1.43612266284238       -2.88065116325535       -1.95521276773594
C            2.99481590692393       -2.36973046589498       -0.05685544766812
C            0.13813413203833       -3.21054015236165        0.79546936753680
C            0.42777759177058       -3.20379835325302        2.29091065912540
C           -1.32024647308928       -3.51201688706529        0.48089810873335
O           -0.17819922755501        0.57176099508456       -0.39858226502899
C           -1.28151797876631        0.28564541124772       -1.25418781530848
C           -1.02136680716962       -0.31790780861370       -2.47794787864949
C           -2.05935504191705       -0.69376848734626       -3.30705858333589
C           -3.37594277513764       -0.52490150979906       -2.90369013791317
C           -3.62674033721286        0.10036697527688       -1.70209893235788
C           -2.58597275633870        0.55090997260436       -0.88249576505776
C           -3.16333709116838        1.33358571060515        0.26620045121096
C           -4.56650587760534        0.69017053631062        0.39134274197010
C           -4.95278311185334        0.36352612426085       -1.05528453530356
C           -3.30097166014026        2.83743152004266       -0.07948084716593
C           -3.54283685004851        3.50832072926713        1.27825238796674
C           -2.79609289847424        2.61772285328760        2.22491422621168
C           -2.39625326674234        2.87883223543860        3.51736519991630
C           -1.65756494972551        1.92008781973576        4.19589055231093
C           -1.26506876226504        0.75641122871812        3.56289879422566
C           -1.66808897566172        0.50196420109618        2.25725384801943
C           -2.47310212453131        1.41030190872313        1.59879317297032
O           -1.19252956700129       -0.67015061383869        1.59573230569806
C            4.19981165877614        1.52503647249024       -0.15170868233340
H            7.91850894637194        0.36061143638618       -0.26792236802831
H            6.42959319669818       -0.09017506285470        0.60037715014437
H            6.94854747834627        1.61894836115715        0.53618550020733
H            5.04836270732867        1.29665654645704       -3.40813069399542
H            2.73053584146103        2.11256652087806       -3.67302303231873
H            1.34234618927929        2.55458881056738       -1.66430315047595
H            1.81207734428528       -0.93220350299187       -1.11658170535875
H            1.49603805945889       -3.92548264581631       -1.66705852140716
H            2.18676224593374       -2.70270161807454       -2.71907267593284
H            0.45268675064077       -2.69396802388909       -2.37369134131439
H            3.81361116733409       -2.30232323537324       -0.76755435955104
H            2.94395092200719       -3.39387598676503        0.30004361047213
H            3.20801178114221       -1.71424136404893        0.78371301818430
H            0.76038467440341       -3.97746717144158        0.32958705102086
H            0.26891278061742       -4.20046395842265        2.69232881521178
H            1.45917744936138       -2.91523967820285        2.47942237008598
H           -0.23236782101361       -2.51683831631008        2.81094225619253
H           -1.47817173274979       -3.48886943279486       -0.59343592925534
H           -1.58040745063136       -4.49716675637029        0.85247218596871
H           -1.97049134469296       -2.77802370934101        0.94485935429888
H            0.00357329781039       -0.46904364081475       -2.77390941020452
H           -1.84055476268082       -1.14918502546853       -4.25858078126893
H           -4.19048745591281       -0.87184583342944       -3.51815158712589
H           -5.27589910136845        1.34754250164786        0.88434281575768
H           -4.48669641767460       -0.23064256905067        0.97017048406525
H           -5.62452797193003       -0.49024790477496       -1.13211488061518
H           -5.44983113662085        1.20875614559514       -1.53679129196997
H           -4.09601400357615        3.02321010685625       -0.79499449251608
H           -2.36064696147023        3.19198288862468       -0.50268899921947
H           -3.18245007505730        4.53543046978533        1.31185298290376
H           -4.60545139182707        3.53082919399226        1.52999105115703
H           -2.64982855143156        3.81478980718145        3.98816299261608
H           -1.35539473161277        2.09565896343602        5.21466250786913
H           -0.64450791183475        0.03658285499670        4.07295927287006
H            4.58386767226953        1.38365942111441        0.84513934310046
72
 energy: -106.023501491761 gnorm: 0.008175310435 xtb: 6.7.1 (edcfbbe)
C            6.89860608900630        0.67531495468950       -0.00901562606678
O            6.23744690456559        0.82752204321380       -1.24548292484806
C            4.96904239372301        1.27339869579677       -1.27579667487996
C            4.42349033057808        1.48099594607614       -2.55098341809321
C            3.13412140931196        1.93854563937711       -2.70222709947408
C            2.34304216216048        2.19323554339175       -1.58987197882112
C            2.88608554201573        1.98349811906759       -0.33687053439054
S            1.84419901740009        2.32655369958793        1.08217267677664
S            1.64543181129369        0.45678511275365        1.87405380518405
P            0.12237267520531       -0.48474647271350        0.74180834139936
N            0.50893415214740       -1.95067368368738        0.13336402807096
C            1.68393911820353       -1.95599168532823       -0.75881198865567
C            1.43036022499216       -2.86620117707100       -1.95824867806953
C            2.97562364764520       -2.34758444795395       -0.04672454328382
C            0.12609410791702       -3.21097347336974        0.79402621423955
C            0.41918874422911       -3.19720434265279        2.28899876923510
C           -1.33451375550913       -3.51748756208339        0.48879503403841
O           -0.16856365767461        0.57642439194174       -0.39425304984713
C           -1.27145854794789        0.28439916856833       -1.25509167663277
C           -1.00260504965074       -0.31699666681013       -2.47716641176755
C           -2.04079402988634       -0.69374697853570       -3.30907976457069
C           -3.35910323890993       -0.52404901339676       -2.90799597657706
C           -3.61358090809386        0.09640082710636       -1.70354049244015
C           -2.57296457737952        0.54851370006363       -0.88280766021141
C           -3.14997151301858        1.32823468492755        0.26523162532529
C           -4.55391622195016        0.68676506745267        0.38985002671431
C           -4.93998991185847        0.35714634713120       -1.05630548272579
C           -3.29185755885156        2.83201004226643       -0.07900665027938
C           -3.53042006863543        3.50268771661568        1.27974144885439
C           -2.78341571021864        2.61094845979548        2.22519559530231
C           -2.38528640273009        2.86494202030073        3.52082146036825
C           -1.63776013850691        1.90714276815646        4.19362513428413
C           -1.24467533961556        0.74430714982569        3.55579413949693
C           -1.66079002041860        0.49667112722754        2.25419420227924
C           -2.46226591088060        1.40357612858802        1.59665893608240
O           -1.18942569895356       -0.67758870192597        1.58724258231568
C            4.18425187995797        1.53140975251409       -0.15316254154395
H            7.90819032664868        0.35982589240518       -0.26151494986745
H            6.42324794998066       -0.09112520012249        0.61130825883297
H            6.94083108443189        1.61870744350194        0.54259966649177
H            5.05228396259990        1.28353769402593       -3.40404275366958
H            2.73397538087313        2.10455825864294       -3.69026829942955
H            1.33365815575907        2.55658695287330       -1.68576324934563
H            1.78935588482487       -0.92025374190937       -1.11038349638007
H            1.49864097498629       -3.91255424529323       -1.67373247666794
H            2.18037562048152       -2.67803345762278       -2.72121115755064
H            0.44506390045448       -2.68727044600363       -2.37806839268215
H            3.80118135991942       -2.27232713043482       -0.74966243787187
H            2.93017353191384       -3.37234870138933        0.31159318123528
H            3.17572112691859       -1.68957174032540        0.79595442469698
H            0.74528701587704       -3.98047823281285        0.32974667674561
H            0.26551447366068       -4.19188500090428        2.69929858981598
H            1.44985249660558       -2.90288040052982        2.47507331939876
H           -0.24344217149162       -2.51142630971735        2.80785796459008
H           -1.50251481798279       -3.49793780850496       -0.58491147476965
H           -1.59187254825395       -4.50342361374604        0.86387302445514
H           -1.98577784933512       -2.78689558652001        0.95722426371391
H            0.02442611070655       -0.46671054127349       -2.76855187246243
H           -1.82028855963658       -1.14848820551722       -4.26151159156609
H           -4.17209842664734       -0.86918404017547       -3.52668361101000
H           -5.26239416417133        1.34919357118589        0.87944116151727
H           -4.48003771086897       -0.23113226043438        0.97525442127230
H           -5.60817659340541       -0.49974652348740       -1.13088944913580
H           -5.43849153542028        1.20258116651827       -1.53655516646175
H           -4.09215296944453        3.01457314033884       -0.79094827835643
H           -2.35641659245306        3.19134226286208       -0.51059440516290
H           -3.16716528509019        4.52894652392666        1.31260074122448
H           -4.59326381887342        3.52377613277440        1.53180742857021
H           -2.64196765280716        3.79733571184043        3.99820597049336
H           -1.32967719164282        2.08136840275261        5.21159795983286
H           -0.61370718933013        0.02522352860566        4.05603768003223
H            4.56279277054742        1.39193260356300        0.84668748268247
72
 energy: -106.023881521856 gnorm: 0.007430201750 xtb: 6.7.1 (edcfbbe)
C            6.88520015662979        0.67471773263803       -0.00013317439790
O            6.22625419120404        0.82179780665370       -1.23919770288966
C            4.95693794783505        1.27001702718757       -1.27299344522941
C            4.41852640533772        1.47313792167831       -2.55132345130941
C            3.13004026155748        1.93289645583262       -2.71205579018461
C            2.33457598307974        2.19200788383360       -1.60390654608310
C            2.86896092192143        1.98456974137886       -0.34547647484794
S            1.82218633325521        2.32691818437040        1.07093561262584
S            1.64031188812238        0.46020637373591        1.87556538873468
P            0.11748808828426       -0.47919421603471        0.74269058491882
N            0.49282599523496       -1.94646376388010        0.12851873987600
C            1.67003515915771       -1.94810824021296       -0.75939305859837
C            1.42770768046951       -2.85794314409395       -1.96125477973597
C            2.96023910434490       -2.32914138642471       -0.03915693561084
C            0.11507223648950       -3.20658298102011        0.79221905244556
C            0.41206975167588       -3.19135743429860        2.28690710049362
C           -1.34676259031420       -3.52056463375933        0.49616122189717
O           -0.16406678322901        0.58081697360413       -0.39126288853085
C           -1.26176784941590        0.28669919527153       -1.25643191628994