86
 energy: -121.977434866026 gnorm: 0.133605619234 xtb: 6.7.1 (edcfbbe)
C           -0.09065000000000       -2.05763100000000       -2.32419700000000
N            0.47884000000000       -1.05705700000000       -1.42439400000000
C            1.61946500000000       -0.36792400000000       -1.93463500000000
C            1.79406600000000       -0.18750600000000       -3.32050100000000
C            2.86561800000000        0.53101800000000       -3.83900100000000
C            3.79011700000000        1.12736600000000       -2.98979900000000
C            4.82308400000000        1.90969700000000       -3.53527700000000
C            5.74201500000000        2.55860100000000       -2.71598200000000
C            5.62991200000000        2.43980200000000       -1.34047700000000
C            4.60948400000000        1.65765200000000       -0.79212400000000
C            3.66959200000000        0.95195200000000       -1.58937100000000
C            2.60917200000000        0.13095800000000       -1.04260600000000
C            2.56969500000000       -0.22798400000000        0.34606900000000
C            1.43253600000000        0.09896000000000        1.13479800000000
C            1.47400500000000       -0.11962400000000        2.52581700000000
C            2.58168600000000       -0.68256500000000        3.14870500000000
C            3.67895300000000       -1.08969700000000        2.39941300000000
C            4.76225100000000       -1.70962800000000        3.04728800000000
C            5.85774300000000       -2.17726300000000        2.32785500000000
C            5.87379900000000       -2.04148100000000        0.94971200000000
C            4.80313000000000       -1.41946500000000        0.30072800000000
C            3.68219700000000       -0.89237300000000        0.99609400000000
N            0.26894400000000        0.64667900000000        0.51861500000000
C           -0.49415600000000        1.56017900000000        1.36350500000000
P           -0.65537100000000       -0.24465500000000       -0.52401000000000
S           -1.86857500000000        0.94607500000000       -1.77709700000000
S           -0.56733400000000        2.23180200000000       -2.70260300000000
C           -0.40941000000000        3.58046300000000       -1.55327000000000
C           -1.50410600000000        4.38919900000000       -1.22825800000000
C           -1.35573300000000        5.45120800000000       -0.33302500000000
C           -0.11061700000000        5.71527400000000        0.23599300000000
C            0.98731400000000        4.92224900000000       -0.09317900000000
C            0.83886700000000        3.86194800000000       -0.98932300000000
N           -1.42728700000000       -1.36936200000000        0.41983100000000
C           -0.63101400000000       -2.47262900000000        0.96448100000000
C           -2.89316700000000       -1.53910700000000        0.61268400000000
C           -3.54491400000000       -2.04168200000000       -0.70396200000000
C           -5.07304600000000       -2.15868800000000       -0.56572000000000
C           -5.40683400000000       -3.18634000000000        0.52410600000000
C           -4.81693600000000       -2.72921400000000        1.86521400000000
C           -5.42395200000000       -1.37681600000000        2.25286400000000
C           -5.08471900000000       -0.33837500000000        1.17788100000000
C           -5.65627200000000       -0.79155800000000       -0.17483200000000
C           -3.55545700000000       -0.20722800000000        1.06915500000000
C           -3.28962000000000       -2.58454200000000        1.72333500000000
H           -0.69058800000000       -1.60113100000000       -3.11837200000000
H            0.69118200000000       -2.68076300000000       -2.77480200000000
H           -0.74350300000000       -2.74810000000000       -1.78458400000000
H            1.06641600000000       -0.56543600000000       -4.03203600000000
H            2.93743100000000        0.65540200000000       -4.91692800000000
H            4.91152700000000        2.03001000000000       -4.61315200000000
H            6.53138400000000        3.16419100000000       -3.15192900000000
H            6.32815000000000        2.95432200000000       -0.68608000000000
H            4.54551200000000        1.61500200000000        0.29400700000000
H            0.62214500000000        0.11577000000000        3.15556000000000
H            2.55531600000000       -0.83292500000000        4.22534800000000
H            4.75428900000000       -1.84459800000000        4.12702200000000
H            6.68480300000000       -2.65913400000000        2.84114400000000
H            6.71107000000000       -2.41983900000000        0.36966700000000
H            4.84955100000000       -1.36169100000000       -0.78554300000000
H            0.15890500000000        2.30538200000000        1.83282400000000
H           -1.04510800000000        1.02932700000000        2.14542000000000
H           -1.23337300000000        2.11865900000000        0.78663800000000
H           -2.47878300000000        4.19752400000000       -1.67027900000000
H           -2.21100600000000        6.07393800000000       -0.08406600000000
H            0.00601000000000        6.54201100000000        0.93187200000000
H            1.96105600000000        5.12420300000000        0.34528900000000
H            1.70271500000000        3.24776500000000       -1.23343000000000
H           -0.69269000000000       -2.50854400000000        2.05642500000000
H           -0.93812600000000       -3.43414600000000        0.54051700000000
H            0.43291400000000       -2.38570100000000        0.73315100000000
H           -3.13019500000000       -3.02092700000000       -0.97818400000000
H           -3.32828700000000       -1.37630200000000       -1.54213300000000
H           -5.50298800000000       -2.48345100000000       -1.52007600000000
H           -5.00332300000000       -4.16899400000000        0.25067300000000
H           -6.49413900000000       -3.30216800000000        0.61128800000000
H           -5.04590400000000       -3.47041700000000        2.63926100000000
H           -5.03359900000000       -1.05397100000000        3.22578400000000
H           -6.51177300000000       -1.46750300000000        2.36037400000000
H           -5.51734700000000        0.62967000000000        1.45496800000000
H           -6.74958500000000       -0.85698100000000       -0.11394000000000
H           -5.42525800000000       -0.04909700000000       -0.94847700000000
H           -3.34631600000000        0.61540200000000        0.38782200000000
H           -3.15180500000000        0.09507900000000        2.04396300000000
H           -2.87095800000000       -2.28371400000000        2.69275700000000
H           -2.88903500000000       -3.57881300000000        1.49173500000000
86
 energy: -121.996814792229 gnorm: 0.057458556990 xtb: 6.7.1 (edcfbbe)
C           -0.08757027095267       -2.06158173117836       -2.32292756221130
N            0.50115045157215       -1.07243067666229       -1.42099762385077
C            1.63016828496420       -0.35117011826166       -1.93252937254005
C            1.77975951118693       -0.16609236484808       -3.31764067735392
C            2.84459817679982        0.52783116814357       -3.83707454038837
C            3.78697502459795        1.12676786093393       -2.99158543956321
C            4.82437674245220        1.91127285189115       -3.53046729568680
C            5.72820420756461        2.54661271112832       -2.71260019089988
C            5.60522705083668        2.42000690533340       -1.32948121967367
C            4.60355229902586        1.64260813917914       -0.78087717779205
C            3.67234197609946        0.94645629171129       -1.58576485272290
C            2.61434635135344        0.12806130486486       -1.05454078673594
C            2.57569138743802       -0.22198710006943        0.36120767134264
C            1.45279440699921        0.09270945355678        1.13819798956889
C            1.47007685091432       -0.13164323540964        2.52448127100136
C            2.56490442011131       -0.67825964853350        3.14593282671177
C            3.67815881609533       -1.08754474182288        2.40114400069925
C            4.76534874746442       -1.71072148548749        3.04257275480825
C            5.84317704924702       -2.16802811116528        2.32289611379495
C            5.84810713561188       -2.02551095079606        0.93605680927423
C            4.79729811704883       -1.40438385053347        0.28889026013978
C            3.68672905222847       -0.88522836547469        0.99326449703472
N            0.29200033360921        0.66039327020746        0.52709594245230
C           -0.48846818948708        1.56876270963463        1.36338858820371
P           -0.62949171177279       -0.27677255581603       -0.49190650519151
S           -1.88514521697514        0.96134244029929       -1.69875043439054
S           -0.55391886174819        2.20837371922978       -2.66008366253700
C           -0.40670811124848        3.58378286901473       -1.53462863015222
C           -1.50062135902048        4.38612031660304       -1.22549984648281
C           -1.35067905286525        5.44164903441812       -0.33853036122363
C           -0.11104322465749        5.70612970617480        0.22716965802956
C            0.98265279890985        4.91681774571352       -0.09880672258491
C            0.83800300998541        3.85506248852477       -0.97893600477831
N           -1.44981969370704       -1.39078559745142        0.43676653137060
C           -0.62674222867085       -2.47862227828239        0.96042427072834
C           -2.92451007923135       -1.54563101467765        0.60882475098846
C           -3.55182681389489       -2.03538641854305       -0.70721949171459
C           -5.07232962209692       -2.15338371880816       -0.55802453661005
C           -5.40477255488254       -3.18292804718806        0.52220073884411
C           -4.80564633384146       -2.71291187752200        1.84810144195867
C           -5.42099280175253       -1.37406196267962        2.24832421508067
C           -5.07647656273740       -0.34856786353089        1.16953146189829
C           -5.65522772543381       -0.79141991826115       -0.17589266266138
C           -3.55221881900026       -0.20928869492327        1.05435513847791
C           -3.28050574054634       -2.58085226580479        1.71521715682188
H           -0.68679763314907       -1.60736522287679       -3.11870768803615
H            0.70362494609678       -2.66358208707315       -2.77233625770044
H           -0.73723692924590       -2.73737512994559       -1.76371873504190
H            1.05829457814219       -0.56779577319725       -4.01453351364917
H            2.92978980963981        0.63910266084654       -4.90920609582661
H            4.90502058150657        2.02654523154377       -4.60312603783863
H            6.51778570671833        3.14992027517201       -3.14157685281802
H            6.29941012228113        2.93539528560014       -0.67905988362244
H            4.53412809053252        1.59033851609129        0.29802041111098
H            0.61949698537835        0.12312840767111        3.13967289866593
H            2.54745881827533       -0.81969876318670        4.21779872673177
H            4.74845692711876       -1.84245841730958        4.11632374842196
H            6.67043527427970       -2.64780253897697        2.82960374922724
H            6.68072563467648       -2.40610209637288        0.35970308259762
H            4.83571431692946       -1.33799085152798       -0.79053920870972
H            0.17304505926774        2.30296169365118        1.82558503273023
H           -1.03913190548252        1.04100647605605        2.14756045896446
H           -1.22030103079005        2.11324032377071        0.76219634481955
H           -2.46842583332354        4.18803748496402       -1.66829664960952
H           -2.20214617964125        6.06151369990454       -0.09376424603583
H            0.00369543421718        6.53018216224102        0.91865625980332
H            1.95195074563937        5.12134702570216        0.33408318862655
H            1.69472219771478        3.24417491081177       -1.23418299220264
H           -0.69814409810440       -2.51032850708549        2.04789861427387
H           -0.93762626359727       -3.43971613144181        0.54610261830194
H            0.42933286326020       -2.34400766444945        0.71261835653775
H           -3.13142060204354       -3.01379413060089       -0.96555878004632
H           -3.31489889482262       -1.34768883515369       -1.52526768414985
H           -5.49683526497520       -2.47740242895782       -1.51311980672517
H           -4.99907995108492       -4.16160017511073        0.25029912590483
H           -6.48801633456889       -3.29303080483571        0.61502091679239
H           -5.02301160240880       -3.45512973104830        2.62361374858590
H           -5.02859466038880       -1.05251025559172        3.21744636123711
H           -6.50498794511534       -1.46910905909290        2.35047529499387
H           -5.50129895976627        0.62189491627621        1.44590018738475
H           -6.74362045562423       -0.86040602238557       -0.10796656411209
H           -5.41889304295227       -0.05226245600438       -0.94671330129752
H           -3.32155489581427        0.59460889290803        0.35124468822060
H           -3.14460939685184        0.07610352192937        2.03050258245870
H           -2.86612799136335       -2.26922142360508        2.67822230979405
H           -2.88125344815405       -3.56869037214074        1.47784509975199
86
 energy: -122.002943023707 gnorm: 0.013215506203 xtb: 6.7.1 (edcfbbe)
C           -0.08414597821960       -2.06804189554548       -2.31656246204411
N            0.51332471315736       -1.08253779823241       -1.41469350538743
C            1.63339748130264       -0.33956289034361       -1.92689731492338
C            1.76341201015817       -0.15618760872843       -3.31489513628409
C            2.82209138764755        0.52533377952082       -3.83423331329391
C            3.77647379006388        1.12477094774313       -2.99054531381450
C            4.82033544041872        1.90912168805926       -3.52181022645461
C            5.71380044804504        2.53253160402720       -2.70020899448710
C            5.58293249192783        2.39632229118324       -1.31090872189751
C            4.59292965907288        1.62287926729733       -0.76617629865517
C            3.66459738053435        0.94148877154634       -1.58289891409534
C            2.60865452093921        0.12707971901552       -1.06310802231712
C            2.57294202044250       -0.21539183656085        0.37342573588699
C            1.46594152793678        0.09445068516810        1.13958497552253
C            1.46452335158589       -0.13297135742620        2.52623581340586
C            2.55026289672788       -0.67407868984213        3.14462465634695
C            3.67261932597881       -1.08354612427800        2.40022275175931
C            4.76532713402946       -1.70894593787410        3.03338393321642
C            5.83017733902068       -2.15705636012259        2.30793243924413
C            5.82557216234811       -2.00505505254645        0.91422440201671
C            4.78690880331652       -1.38441718961134        0.27301916728264
C            3.68237182493365       -0.87754269280016        0.99077915781987
N            0.31259052867367        0.68570682552872        0.52802345551970
C           -0.47682426434710        1.58851922124123        1.36186840221254
P           -0.60836792233228       -0.29773968429176       -0.46034434667120
S           -1.87115241451788        0.95599658184918       -1.63242230170025
S           -0.54296818255953        2.17551858159021       -2.61817173912697
C           -0.40137579415994        3.57384722470164       -1.51247892019467
C           -1.49802605963368        4.37050428618283       -1.21981471872270
C           -1.34651975919094        5.42985659104301       -0.34419265197376
C           -0.10948786113892        5.69786828149743        0.21971667081665
C            0.98467419253203        4.91207349266451       -0.10204893353866
C            0.84420140169775        3.84432201703994       -0.96958467965288
N           -1.45876175773811       -1.40363386365391        0.45463492505309
C           -0.61261625115178       -2.48270084017686        0.96153441563954
C           -2.93862657017341       -1.55280253658683        0.60766476414426
C           -3.55504710046237       -2.03054985674982       -0.70563699619894
C           -5.07249959390649       -2.14912464221450       -0.56368520005145
C           -5.39820782018711       -3.17505377406100        0.51866134088370
C           -4.80135615280933       -2.71117773825889        1.84393933360711
C           -5.40988397297864       -1.37066007248830        2.23812352279971
C           -5.07209443118226       -0.34468626128426        1.16077532395999
C           -5.65307474295978       -0.79096186729820       -0.17837261623031
C           -3.55027331991652       -0.21953773867078        1.04283225566819
C           -3.28060798744413       -2.57519857248918        1.70334159835385
H           -0.68324577457675       -1.61566981226817       -3.11258050742302
H            0.71338962485555       -2.65786244453418       -2.76410619813960
H           -0.73029963679922       -2.72989147934753       -1.74104877915375
H            1.03110744249926       -0.55948136243182       -3.99400043260382
H            2.92075906764087        0.63372418285448       -4.90246001750826
H            4.89234534022432        2.01956863127388       -4.59280357383170
H            6.50540012195965        3.13647363365963       -3.11735723114183
H            6.27323018294869        2.91539071001264       -0.66359886102791
H            4.51582126877234        1.55302470524045        0.30786405324284
H            0.60714371645864        0.12821673005813        3.12368773562680
H            2.54553111727398       -0.81608031190937        4.21360145609912
H            4.73891638071672       -1.83811844138684        4.10449079676456
H            6.66037146753163       -2.63790058811835        2.80268837276345
H            6.65412309261088       -2.39039313379909        0.34017529493649
H            4.81406699217613       -1.30079809791867       -0.80218212742218
H            0.19144715533431        2.31429343194637        1.81971110792651
H           -1.03333324608475        1.06533169409630        2.14430216595296
H           -1.19758785491226        2.12159317608380        0.73975892460291
H           -2.45912548010549        4.16445778351110       -1.66676942489113
H           -2.19620973339569        6.04980840597769       -0.10583285395410
H            0.00239994901796        6.52327445137663        0.90514773576380
H            1.95140181882292        5.12329518435126        0.32621608174896
H            1.69250212758892        3.22862900057585       -1.22747634480777
H           -0.68002797731646       -2.52543045288095        2.04732565531123
H           -0.91267698949171       -3.44710186454398        0.55065044759218
H            0.43182455607798       -2.30428727275291        0.69531875284407
H           -3.13311968055894       -3.00489155307828       -0.96587121972985
H           -3.30762018617212       -1.32325156780177       -1.50458108051025
H           -5.49533824414045       -2.47273693390046       -1.51962202554290
H           -4.99378321933722       -4.15180539614207        0.24664017106441
H           -6.47856363229919       -3.28066215545445        0.61661430510531
H           -5.00941756981389       -3.45440630829347        2.62149387352053
H           -5.01877283005992       -1.04858033242560        3.20523588891070
H           -6.49115833942796       -1.46767368678383        2.33547828012070
H           -5.48848701967192        0.62988358440494        1.43605181319454
H           -6.73822638995476       -0.86158968933555       -0.10418424917015
H           -5.41516561408107       -0.05455166241454       -0.94802987205752
H           -3.30798074601755        0.56409453852369        0.32031852294621
H           -3.13571524672787        0.06503705939972        2.01317922005054
H           -2.86459961548275       -2.25435493884598        2.65920905536598
H           -2.87946829156438       -3.55760739174211        1.46248537401670
86
 energy: -122.004633778886 gnorm: 0.011792437677 xtb: 6.7.1 (edcfbbe)
C           -0.08676520388171       -2.07528991890376       -2.30357248627627
N            0.50667959331375       -1.08318094146009       -1.40695268635700
C            1.62113786392560       -0.33581531323729       -1.92200765841045
C            1.74339000204503       -0.14980914690564       -3.31204509047295
C            2.80443435814891        0.52873082714768       -3.83064651769717
C            3.76264967939503        1.12329280755928       -2.98553709298843
C            4.81146726176431        1.90592220411048       -3.51084015161257
C            5.70341201840859        2.52325041520543       -2.68220989232209
C            5.57033993232487        2.38164561349553       -1.29194040864323
C            4.57935799739250        1.60836654831636       -0.75323092272233
C            3.65060252233797        0.93873200015086       -1.57981840560302
C            2.59443183525444        0.12849902088170       -1.06256444046126
C            2.56170259373863       -0.21152107350860        0.37746198135544
C            1.46052302856289        0.10093689703696        1.14315113081045
C            1.45568613591813       -0.12962893337326        2.53109246267693
C            2.54237281587731       -0.67404451122063        3.14522914167066
C            3.66446900450542       -1.08065597871576        2.39626229182833
C            4.76212159569031       -1.70655365316007        3.02157208221198
C            5.82326663347061       -2.15001069731700        2.28689381195902
C            5.81390285837092       -1.99110236128832        0.89222561171060
C            4.77375619876257       -1.36826892511077        0.25909863175352
C            3.67143160279958       -0.87214013077848        0.98876567289946
N            0.31501858025073        0.70436003731632        0.52596520752611
C           -0.46751074588157        1.61444190269805        1.35703845403906
P           -0.60763888617208       -0.29930168480016       -0.44418648467521
S           -1.88663181976614        0.94681147927551       -1.59661347916898
S           -0.52902314298015        2.13201001002673       -2.58205291314502
C           -0.39062958122548        3.54859778455023       -1.49451183758531
C           -1.49123826944187        4.34447627150326       -1.21517426499645
C           -1.34226270710382        5.41490223836765       -0.35080585812790
C           -0.10559823914970        5.69188552963353        0.21079402906328
C            0.99236516573066        4.90701287158994       -0.10215353144456
C            0.85535614271282        3.82716845338475       -0.95693045780108
N           -1.45600548133336       -1.40693150110705        0.46442527423381
C           -0.59905903029172       -2.48326769512471        0.96651682427458
C           -2.93598495443889       -1.55768436016744        0.60695124193974
C           -3.54732238804869       -2.02575284857730       -0.71157168280889
C           -5.06525842288674       -2.14453734554418       -0.56780447586362
C           -5.39359474890798       -3.17187051342280        0.51303484924960
C           -4.79381742161424       -2.70708358064065        1.83695077917072
C           -5.40229221090326       -1.36636518870231        2.23221797392743
C           -5.06208653353081       -0.34315349748774        1.15262163108140
C           -5.64862227185668       -0.78671416909671       -0.18500227055014
C           -3.54100336258013       -0.22035757830919        1.03130723299704
C           -3.27189642020677       -2.57803514938351        1.69995817664639
H           -0.68736250445989       -1.62838328790898       -3.10103287676004
H            0.71487507190375       -2.66229804129156       -2.74810050923038
H           -0.72839913406871       -2.73439394990077       -1.72201111403666
H            1.00125032457115       -0.54819797511026       -3.98281114852374
H            2.90844819555575        0.64045243227550       -4.89835749917362
H            4.88261771280894        2.01587764535115       -4.58235343889334
H            6.49972906639778        3.12655945653831       -3.08998547416486
H            6.26237281839772        2.89674532857304       -0.64353566493839
H            4.49658575026804        1.52256473530752        0.31970081911235
H            0.59421861096242        0.13294148653168        3.12148902814922
H            2.54587163680662       -0.82102840899691        4.21401010770983
H            4.73580528944019       -1.83649793139932        4.09295601041489
H            6.65859727448094       -2.63163543821188        2.77120695389485
H            6.64223842830826       -2.37318257947594        0.31588418697769
H            4.79159386483414       -1.26833760189849       -0.81546179904072
H            0.20882706997506        2.33436861991288        1.81288352291154
H           -1.03126598688674        1.10010855531759        2.13960755407855
H           -1.17827111874224        2.15074610069779        0.72875974683226
H           -2.45008413847400        4.12796876297879       -1.66191431530559
H           -2.19329101212399        6.03652963613532       -0.12013644438248
H            0.00282592326669        6.52428515677906        0.88828592387954
H            1.95892521988107        5.12920973676091        0.32191204970690
H            1.70205811578964        3.20840357234726       -1.21117328838352
H           -0.65890025812510       -2.53723617042416        2.05286399293092
H           -0.88458208589589       -3.45090724733070        0.55159364397187
H            0.43917355430404       -2.28545345944870        0.69487628523614
H           -3.12743116974309       -2.99779594130913       -0.98140935001096
H           -3.30093542229441       -1.30940469720779       -1.50207889343331
H           -5.48907865997882       -2.46828234692941       -1.52289446147784
H           -4.99073091344837       -4.14900782042750        0.23984881951268
H           -6.47439561871481       -3.27450751310168        0.61260542522753
H           -5.00322324725551       -3.44882200502988        2.61416300236274
H           -5.01050885854813       -1.04297270826712        3.19858643648274
H           -6.48404556288424       -1.46277188193315        2.32806836339314
H           -5.47465928466378        0.63248377019061        1.42752515599220
H           -6.73353146308481       -0.85911244643966       -0.10623453744342
H           -5.41407180867587       -0.05051294270796       -0.95601728919593
H           -3.29881744358122        0.55238030583594        0.29815312940251
H           -3.12289767113177        0.07220643294436        1.99693527363630
H           -2.85472801041347       -2.25462988309615        2.65468014140599
H           -2.87043413325699       -3.56042667153696        1.45754904787961
86
 energy: -122.005888799031 gnorm: 0.009633501388 xtb: 6.7.1 (edcfbbe)
C           -0.09339511483081       -2.08549441378609       -2.28280631321202
N            0.49166650242393       -1.08010277813540       -1.39665883003367
C            1.59946894862085       -0.33117685074383       -1.91656024558863
C            1.71643552195903       -0.13953873018826       -3.30771497161087
C            2.77990653839361        0.53875933664236       -3.82411561945536
C            3.74156665821400        1.12556538131180       -2.97652991729063
C            4.79729797380263        1.90446272244031       -3.49425826084920
C            5.68973832094679        2.51229121578419       -2.65711203018767
C            5.55556203454143        2.36505398910641       -1.26722758117451
C            4.55850504421986        1.59490269029399       -0.73630290265498
C            3.62901182685911        0.93901547117688       -1.57378998403104
C            2.57192233471533        0.13259605529377       -1.05867727163513
C            2.54314885314188       -0.20807772159464        0.38004064540904
C            1.44701324843889        0.10903944764078        1.14956965403193
C            1.44325978495812       -0.12638914050864        2.53793889063895
C            2.53254731140824       -0.67754505078317        3.14440701308671
C            3.65206139643440       -1.08049599912703        2.38831963352348
C            4.75702490040068       -1.70563693444824        3.00269130057685
C            5.81473153986913       -2.14122052992755        2.25597401272195
C            5.80004771926921       -1.97389027427412        0.86196556005642
C            4.75349380278324       -1.35141556161781        0.23987747467359
C            3.65407795881527       -0.86840611732245        0.98388471971496
N            0.31142226719647        0.72505212833727        0.52475798548355
C           -0.45621072171485        1.65288847293893        1.34932724427776
P           -0.61281539428157       -0.29855288238829       -0.42447246498022
S           -1.87250998738744        0.94082488965983       -1.58719703901304
S           -0.50119786369964        2.10637952193740       -2.57260725672421
C           -0.37133898498486        3.51745588685294       -1.47743638846241
C           -1.47850211691843        4.30711044438574       -1.20786027521306
C           -1.33519471296881        5.39057248292255       -0.35729006442379
C           -0.09887677643530        5.68223073749791        0.19878378033347
C            1.00439170468273        4.89884204903624       -0.10153335377435
C            0.87345653553406        3.80553964881479       -0.94168458382117
N           -1.44719353313502       -1.41393536069435        0.47573554235992
C           -0.57985380611939       -2.48554458415706        0.97602481545820