      -----------------------------------------------------------      
     |                   =====================                   |     
     |                           x T B                           |     
     |                   =====================                   |     
     |                         S. Grimme                         |     
     |          Mulliken Center for Theoretical Chemistry        |     
     |                    University of Bonn                     |     
      -----------------------------------------------------------      

   * xtb version 6.7.1 (edcfbbe) compiled by 'conda@3ef47c1a292c' on 2024-11-25

   xtb is free software: you can redistribute it and/or modify it under
   the terms of the GNU Lesser General Public License as published by
   the Free Software Foundation, either version 3 of the License, or
   (at your option) any later version.
   
   xtb is distributed in the hope that it will be useful,
   but WITHOUT ANY WARRANTY; without even the implied warranty of
   MERCHANTABILITY or FITNESS FOR A PARTICULAR PURPOSE.  See the
   GNU Lesser General Public License for more details.
   
   Cite this work as:
   * C. Bannwarth, E. Caldeweyher, S. Ehlert, A. Hansen, P. Pracht,
     J. Seibert, S. Spicher, S. Grimme, WIREs Comput. Mol. Sci., 2020, 11,
     e01493. DOI: 10.1002/wcms.1493
   
   for GFN2-xTB:
   * C. Bannwarth, S. Ehlert and S. Grimme., J. Chem. Theory Comput., 2019,
     15, 1652-1671. DOI: 10.1021/acs.jctc.8b01176
   for GFN1-xTB:
   * S. Grimme, C. Bannwarth, P. Shushkov, J. Chem. Theory Comput., 2017,
     13, 1989-2009. DOI: 10.1021/acs.jctc.7b00118
   for GFN0-xTB:
   * P. Pracht, E. Caldeweyher, S. Ehlert, S. Grimme, ChemRxiv, 2019, preprint.
     DOI: 10.26434/chemrxiv.8326202.v1
   for GFN-FF:
   * S. Spicher and S. Grimme, Angew. Chem. Int. Ed., 2020, 59, 15665-15673.
     DOI: 10.1002/anie.202004239
   
   for ALPB and GBSA implicit solvation:
   * S. Ehlert, M. Stahn, S. Spicher, S. Grimme, J. Chem. Theory Comput.,
     2021, 17, 4250-4261. DOI: 10.1021/acs.jctc.1c00471
   
   for ddCOSMO and CPCM-X implicit solvation:
   * M. Stahn, S. Ehlert, S. Grimme, J. Phys. Chem. A,
     2023, XX, XXXX-XXXX. DOI: 10.1021/acs.jpca.3c04382
   
   for DFT-D4:
   * E. Caldeweyher, C. Bannwarth and S. Grimme, J. Chem. Phys., 2017,
     147, 034112. DOI: 10.1063/1.4993215
   * E. Caldeweyher, S. Ehlert, A. Hansen, H. Neugebauer, S. Spicher,
     C. Bannwarth and S. Grimme, J. Chem. Phys., 2019, 150, 154122.
     DOI: 10.1063/1.5090222
   * E. Caldeweyher, J.-M. Mewes, S. Ehlert and S. Grimme, Phys. Chem. Chem. Phys.
     2020, 22, 8499-8512. DOI: 10.1039/D0CP00502A
   
   for sTDA-xTB:
   * S. Grimme and C. Bannwarth, J. Chem. Phys., 2016, 145, 054103.
     DOI: 10.1063/1.4959605
   
   in the mass-spec context:
   * V. Asgeirsson, C. Bauer and S. Grimme, Chem. Sci., 2017, 8, 4879.
     DOI: 10.1039/c7sc00601b
   * J. Koopman and S. Grimme, ACS Omega 2019, 4, 12, 15120-15133.
     DOI: 10.1021/acsomega.9b02011
   
   for metadynamics refer to:
   * S. Grimme, J. Chem. Theory Comput., 2019, 155, 2847-2862
     DOI: 10.1021/acs.jctc.9b00143
   
   for SPH calculations refer to:
   * S. Spicher and S. Grimme, J. Chem. Theory Comput., 2021, 17, 1701-1714
     DOI: 10.1021/acs.jctc.0c01306
   
   for ONIOM refer to:
   * C. Plett, A. Katbashev, S. Ehlert, S. Grimme, M. Bursch,
     Phys. Chem. Chem. Phys., 2023, 25, 17860-17868. DOI: 10.1039/D3CP02178E
   
   for DIPRO refer to:
   * J. Kohn, N. Gildemeister, S. Grimme, D. Fazzi, A. Hansen,
     J. Chem. Phys., 2023, just accepted.
   
   for PTB refer to:
   * S. Grimme, M. Mueller, A. Hansen, J. Chem. Phys., 2023, 158, 124111.
     DOI: 10.1063/5.0137838
   
   with help from (in alphabetical order)
   P. Atkinson, C. Bannwarth, F. Bohle, G. Brandenburg, E. Caldeweyher
   M. Checinski, S. Dohm, S. Ehlert, S. Ehrlich, I. Gerasimov, C. Hölzer
   A. Katbashev, J. Kohn, J. Koopman, C. Lavigne, S. Lehtola, F. März, M. Müller,
   F. Musil, H. Neugebauer, J. Pisarek, C. Plett, P. Pracht, F. Pultar,
   J. Seibert, P. Shushkov, S. Spicher, M. Stahn, M. Steiner, T. Strunk,
   J. Stückrath, T. Rose, and J. Unsleber
   
 * started run on 2024/12/16 at 18:46:58.667     
   ID    Z sym.   atoms
    1    6 C      1, 3-22, 24, 27-36, 39-44
    2    7 N      2, 23, 26
    3   15 P      25
    4   16 S      37, 38
    5    1 H      45-83

           -------------------------------------------------
          |                Calculation Setup                |
           -------------------------------------------------

          program call               : xtb --gfn2 --opt extreme -P 8 --charge 1 molecule.xyz
          hostname                   : node20
          coordinate file            : molecule.xyz
          omp threads                :                     8


           -------------------------------------------------
          |                 G F N 2 - x T B                 |
           -------------------------------------------------

        Reference                      10.1021/acs.jctc.8b01176
      * Hamiltonian:
        H0-scaling (s, p, d)           1.850000    2.230000    2.230000
        zeta-weighting                 0.500000
      * Dispersion:
        s8                             2.700000
        a1                             0.520000
        a2                             5.000000
        s9                             5.000000
      * Repulsion:
        kExp                           1.500000    1.000000
        rExp                           1.000000
      * Coulomb:
        alpha                          2.000000
        third order                    shell-resolved
        anisotropic                    true
        a3                             3.000000
        a5                             4.000000
        cn-shift                       1.200000
        cn-exp                         4.000000
        max-rad                        5.000000


          ...................................................
          :                      SETUP                      :
          :.................................................:
          :  # basis functions                 233          :
          :  # atomic orbitals                 230          :
          :  # shells                          130          :
          :  # electrons                       222          :
          :  max. iterations                   250          :
          :  Hamiltonian                  GFN2-xTB          :
          :  restarted?                      false          :
          :  GBSA solvation                  false          :
          :  PC potential                    false          :
          :  electronic temp.          300.0000000     K    :
          :  accuracy                    1.0000000          :
          :  -> integral cutoff          0.2500000E+02      :
          :  -> integral neglect         0.1000000E-07      :
          :  -> SCF convergence          0.1000000E-05 Eh   :
          :  -> wf. convergence          0.1000000E-03 e    :
          :  Broyden damping             0.4000000          :
          :  net charge                          1          :
          :  unpaired electrons                  0          :
          ...................................................

 iter      E             dE          RMSdq      gap      omega  full diag
   1   -120.4448735 -0.120445E+03  0.417E+00    1.64       0.0  T
   2   -120.6120017 -0.167128E+00  0.253E+00    2.13       1.0  T
   3   -120.5951536  0.168481E-01  0.123E+00    1.96       1.0  T
   4   -120.6094206 -0.142671E-01  0.654E-01    1.67       1.0  T
   5   -120.6373106 -0.278900E-01  0.267E-01    1.79       1.0  T
   6   -120.6395612 -0.225053E-02  0.140E-01    1.76       1.0  T
   7   -120.6411145 -0.155330E-02  0.450E-02    1.77       1.0  T
   8   -120.6411609 -0.463831E-04  0.204E-02    1.78       1.0  T
   9   -120.6411667 -0.582202E-05  0.949E-03    1.78       1.2  T
  10   -120.6411678 -0.116748E-05  0.504E-03    1.78       2.2  T
  11   -120.6411683 -0.423587E-06  0.251E-03    1.78       4.4  T
  12   -120.6411685 -0.182881E-06  0.144E-03    1.78       7.6  T
  13   -120.6411685 -0.213195E-07  0.848E-04    1.78      12.9  T
  14   -120.6411685 -0.171135E-07  0.431E-04    1.78      25.4  T

   *** convergence criteria satisfied after 14 iterations ***

         #    Occupation            Energy/Eh            Energy/eV
      -------------------------------------------------------------
         1        2.0000           -0.8639495             -23.5093
       ...           ...                  ...                  ...
       105        2.0000           -0.4970210             -13.5246
       106        2.0000           -0.4942692             -13.4497
       107        2.0000           -0.4932053             -13.4208
       108        2.0000           -0.4863165             -13.2333
       109        2.0000           -0.4857230             -13.2172
       110        2.0000           -0.4693558             -12.7718
       111        2.0000           -0.4568864             -12.4325 (HOMO)
       112                         -0.3916219             -10.6566 (LUMO)
       113                         -0.3729192             -10.1476
       114                         -0.3556674              -9.6782
       115                         -0.3499293              -9.5221
       116                         -0.3371980              -9.1756
       ...                                ...                  ...
       230                          1.1178532              30.4183
      -------------------------------------------------------------
                  HL-Gap            0.0652645 Eh            1.7759 eV
             Fermi-level           -0.4242541 Eh          -11.5445 eV

 SCC (total)                   0 d,  0 h,  0 min,  2.272 sec
 SCC setup                      ...        0 min,  0.000 sec (  0.014%)
 Dispersion                     ...        0 min,  0.002 sec (  0.072%)
 classical contributions        ...        0 min,  0.000 sec (  0.005%)
 integral evaluation            ...        0 min,  0.009 sec (  0.395%)
 iterations                     ...        0 min,  2.127 sec ( 93.627%)
 molecular gradient             ...        0 min,  0.119 sec (  5.221%)
 printout                       ...        0 min,  0.015 sec (  0.664%)

         :::::::::::::::::::::::::::::::::::::::::::::::::::::
         ::                     SUMMARY                     ::
         :::::::::::::::::::::::::::::::::::::::::::::::::::::
         :: total energy            -118.818427292764 Eh    ::
         :: gradient norm              0.133509129722 Eh/a0 ::
         :: HOMO-LUMO gap              1.775937462211 eV    ::
         ::.................................................::
         :: SCC energy              -120.636015433453 Eh    ::
         :: -> isotropic ES            0.078530300969 Eh    ::
         :: -> anisotropic ES          0.002640258375 Eh    ::
         :: -> anisotropic XC          0.072115466742 Eh    ::
         :: -> dispersion             -0.128134353765 Eh    ::
         :: repulsion energy           1.817588140689 Eh    ::
         :: add. restraining           0.000000000000 Eh    ::
         :: total charge               1.000000000000 e     ::
         :::::::::::::::::::::::::::::::::::::::::::::::::::::

      ----------------------------------------------------------- 
     |                   =====================                   |
     |                        A N C O P T                        |
     |                   =====================                   |
     |               Approximate Normal Coordinate               |
     |                Rational Function Optimizer                |
      ----------------------------------------------------------- 
      ----------------------------------------------------------- 
     |                   =====================                   |
     |                        A N C O P T                        |
     |                   =====================                   |
     |               Approximate Normal Coordinate               |
     |                Rational Function Optimizer                |
      ----------------------------------------------------------- 

          ...................................................
          :                      SETUP                      :
          :.................................................:
          :   optimization level           extreme          :
          :   max. optcycles                  1660          :
          :   ANC micro-cycles                  20          :
          :   degrees of freedom               243          :
          :.................................................:
          :   RF solver                   davidson          :
          :   write xtbopt.log                true          :
          :   linear?                        false          :
          :   energy convergence         0.5000000E-07 Eh   :
          :   grad. convergence          0.5000000E-04 Eh/α :
          :   maxmium RF displ.          1.0000000          :
          :   Hlow (freq-cutoff)         0.1000000E-01      :
          :   Hmax (freq-cutoff)         5.0000000          :
          :   S6 in model hess.         20.0000000          :
          ...................................................

generating ANC from exact Hessian ...
Using Lindh-Hessian (1995)
 Shifting diagonal of input Hessian by    9.8608475645616863E-003
 Lowest  eigenvalues of input Hessian
    0.000000    0.000000    0.000000    0.000000    0.000000    0.000000
    0.010000    0.010062    0.010136    0.010211    0.010258    0.010353
    0.010576    0.010630    0.011105    0.011164    0.011438    0.011537
 Highest eigenvalues
    1.943575    1.992684    2.020916    2.050030    2.071085    2.098180


........................................................................
.............................. CYCLE    1 ..............................
........................................................................

 iter      E             dE          RMSdq      gap      omega  full diag
   1   -120.6411685 -0.120641E+03  0.223E-04    1.78       0.0  T
   2   -120.6411685 -0.457291E-09  0.163E-04    1.78      67.4  T
   3   -120.6411685 -0.471232E-09  0.122E-04    1.78      89.9  T
     SCC iter.                  ...        0 min,  0.329 sec
     gradient                   ...        0 min,  0.123 sec
 * total energy  :  -118.8184273 Eh     change       -0.2487269E-08 Eh
   gradient norm :     0.1335105 Eh/α   predicted     0.0000000E+00 (-100.00%)
   displ. norm   :     0.3641511 α      lambda       -0.2623460E-01
   maximum displ.:     0.1090033 α      in ANC's #22, #48, #14, ...

........................................................................
.............................. CYCLE    2 ..............................
........................................................................

 iter      E             dE          RMSdq      gap      omega  full diag
   1   -120.7109120 -0.120711E+03  0.268E-01    1.84       0.0  T
   2   -120.7110547 -0.142691E-03  0.143E-01    1.91       1.0  T
   3   -120.7109056  0.149009E-03  0.539E-02    1.95       1.0  T
   4   -120.7110745 -0.168906E-03  0.219E-02    1.96       1.0  T
   5   -120.7110951 -0.205953E-04  0.118E-02    1.95       1.0  T
   6   -120.7111015 -0.639465E-05  0.523E-03    1.95       2.1  T
   7   -120.7111025 -0.920202E-06  0.290E-03    1.95       3.8  T
   8   -120.7111026 -0.132978E-06  0.171E-03    1.95       6.4  T
   9   -120.7111026 -0.332046E-07  0.847E-04    1.95      13.0  T
  10   -120.7111026 -0.919653E-08  0.382E-04    1.95      28.7  T
     SCC iter.                  ...        0 min,  1.732 sec
     gradient                   ...        0 min,  0.116 sec
 * total energy  :  -118.8370872 Eh     change       -0.1865995E-01 Eh
   gradient norm :     0.0589955 Eh/α   predicted    -0.1487493E-01 ( -20.28%)
   displ. norm   :     0.3859431 α      lambda       -0.1060610E-01
   maximum displ.:     0.1355923 α      in ANC's #14, #48, #18, ...

........................................................................
.............................. CYCLE    3 ..............................
........................................................................

 iter      E             dE          RMSdq      gap      omega  full diag
   1   -120.7535365 -0.120754E+03  0.238E-01    2.06       0.0  T
   2   -120.7535940 -0.575117E-04  0.126E-01    2.10       1.0  T
   3   -120.7535355  0.584426E-04  0.329E-02    2.13       1.0  T
   4   -120.7536025 -0.669293E-04  0.133E-02    2.13       1.0  T
   5   -120.7536106 -0.811751E-05  0.670E-03    2.13       1.6  T
   6   -120.7536129 -0.236214E-05  0.264E-03    2.13       4.2  T
   7   -120.7536131 -0.122240E-06  0.156E-03    2.13       7.1  T
   8   -120.7536131 -0.481584E-07  0.862E-04    2.13      12.7  T
   9   -120.7536131 -0.100664E-07  0.474E-04    2.13      23.2  T
     SCC iter.                  ...        0 min,  1.378 sec
     gradient                   ...        0 min,  0.119 sec
 * total energy  :  -118.8434695 Eh     change       -0.6382262E-02 Eh
   gradient norm :     0.0161252 Eh/α   predicted    -0.6092949E-02 (  -4.53%)
   displ. norm   :     0.3358240 α      lambda       -0.2245421E-02
   maximum displ.:     0.1857055 α      in ANC's #14, #18, #10, ...

........................................................................
.............................. CYCLE    4 ..............................
........................................................................

 iter      E             dE          RMSdq      gap      omega  full diag
   1   -120.7555688 -0.120756E+03  0.123E-01    2.16       0.0  T
   2   -120.7555832 -0.144039E-04  0.636E-02    2.18       1.0  T
   3   -120.7555698  0.134013E-04  0.170E-02    2.18       1.0  T
   4   -120.7555819 -0.121209E-04  0.856E-03    2.19       1.3  T
   5   -120.7555868 -0.486754E-05  0.296E-03    2.19       3.7  T
   6   -120.7555873 -0.483184E-06  0.121E-03    2.19       9.1  T
   7   -120.7555873 -0.463203E-07  0.506E-04    2.19      21.7  T
   8   -120.7555873 -0.476312E-08  0.228E-04    2.19      48.2  T
     SCC iter.                  ...        0 min,  0.959 sec
     gradient                   ...        0 min,  0.120 sec
 * total energy  :  -118.8451271 Eh     change       -0.1657565E-02 Eh
   gradient norm :     0.0144077 Eh/α   predicted    -0.1249463E-02 ( -24.62%)
   displ. norm   :     0.4407716 α      lambda       -0.1807055E-02
   maximum displ.:     0.2482543 α      in ANC's #14, #17, #11, ...

........................................................................
.............................. CYCLE    5 ..............................
........................................................................

 iter      E             dE          RMSdq      gap      omega  full diag
   1   -120.7533843 -0.120753E+03  0.103E-01    2.20       0.0  T
   2   -120.7533978 -0.135250E-04  0.540E-02    2.21       1.0  T
   3   -120.7533921  0.564874E-05  0.152E-02    2.21       1.0  T
   4   -120.7533988 -0.662197E-05  0.669E-03    2.21       1.6  T
   5   -120.7534002 -0.139690E-05  0.338E-03    2.21       3.2  T
   6   -120.7534007 -0.558905E-06  0.154E-03    2.21       7.1  T
   7   -120.7534008 -0.102694E-06  0.719E-04    2.21      15.3  T
   8   -120.7534008 -0.314392E-08  0.331E-04    2.21      33.2  T
     SCC iter.                  ...        0 min,  1.103 sec
     gradient                   ...        0 min,  0.121 sec
 * total energy  :  -118.8463651 Eh     change       -0.1237987E-02 Eh
   gradient norm :     0.0105457 Eh/α   predicted    -0.1079066E-02 ( -12.84%)
   displ. norm   :     0.3815961 α      lambda       -0.9171371E-03
   maximum displ.:     0.2111718 α      in ANC's #14, #11, #17, ...

........................................................................
.............................. CYCLE    6 ..............................
........................................................................

 iter      E             dE          RMSdq      gap      omega  full diag
   1   -120.7523158 -0.120752E+03  0.801E-02    2.21       0.0  T
   2   -120.7523262 -0.104103E-04  0.381E-02    2.22       1.0  T
   3   -120.7523246  0.161062E-05  0.116E-02    2.22       1.0  T
   4   -120.7523250 -0.390342E-06  0.729E-03    2.22       1.5  T
   5   -120.7523276 -0.259624E-05  0.251E-03    2.22       4.4  T
   6   -120.7523280 -0.408200E-06  0.998E-04    2.22      11.0  T
   7   -120.7523280 -0.597830E-07  0.433E-04    2.22      25.4  T
     SCC iter.                  ...        0 min,  0.903 sec
     gradient                   ...        0 min,  0.119 sec
 * total energy  :  -118.8469758 Eh     change       -0.6107389E-03 Eh
   gradient norm :     0.0077375 Eh/α   predicted    -0.5253447E-03 ( -13.98%)
   displ. norm   :     0.3161116 α      lambda       -0.5411435E-03
   maximum displ.:     0.1407850 α      in ANC's #14, #17, #11, ...

........................................................................
.............................. CYCLE    7 ..............................
........................................................................

 iter      E             dE          RMSdq      gap      omega  full diag
   1   -120.7541008 -0.120754E+03  0.604E-02    2.22       0.0  T
   2   -120.7541065 -0.564861E-05  0.324E-02    2.22       1.0  T
   3   -120.7541054  0.112796E-05  0.820E-03    2.22       1.3  T
   4   -120.7541068 -0.146899E-05  0.417E-03    2.22       2.6  T
   5   -120.7541075 -0.643510E-06  0.160E-03    2.22       6.8  T
   6   -120.7541075 -0.647133E-07  0.766E-04    2.22      14.3  T
   7   -120.7541075 -0.375262E-08  0.523E-04    2.22      21.0  T
     SCC iter.                  ...        0 min,  0.929 sec
     gradient                   ...        0 min,  0.120 sec
 * total energy  :  -118.8473406 Eh     change       -0.3647824E-03 Eh
   gradient norm :     0.0072396 Eh/α   predicted    -0.2976197E-03 ( -18.41%)
   displ. norm   :     0.2558422 α      lambda       -0.3324225E-03
   maximum displ.:     0.0983423 α      in ANC's #3, #11, #15, ...

........................................................................
.............................. CYCLE    8 ..............................
........................................................................

 iter      E             dE          RMSdq      gap      omega  full diag
   1   -120.7571391 -0.120757E+03  0.471E-02    2.22       0.0  T
   2   -120.7571414 -0.235119E-05  0.258E-02    2.22       1.0  T
   3   -120.7571392  0.226679E-05  0.774E-03    2.22       1.4  T
   4   -120.7571419 -0.273709E-05  0.309E-03    2.22       3.5  T
   5   -120.7571422 -0.321360E-06  0.105E-03    2.22      10.5  T
   6   -120.7571423 -0.640778E-07  0.358E-04    2.22      30.6  T
   7   -120.7571423 -0.257373E-09  0.230E-04    2.22      47.7  T
     SCC iter.                  ...        0 min,  0.995 sec
     gradient                   ...        0 min,  0.120 sec
 * total energy  :  -118.8475755 Eh     change       -0.2349219E-03 Eh
   gradient norm :     0.0057960 Eh/α   predicted    -0.1771119E-03 ( -24.61%)
   displ. norm   :     0.2369013 α      lambda       -0.2226789E-03
   maximum displ.:     0.1118810 α      in ANC's #3, #11, #5, ...

........................................................................
.............................. CYCLE    9 ..............................
........................................................................

 iter      E             dE          RMSdq      gap      omega  full diag
   1   -120.7592761 -0.120759E+03  0.415E-02    2.23       0.0  T
   2   -120.7592781 -0.201620E-05  0.233E-02    2.23       1.0  T
   3   -120.7592765  0.163286E-05  0.674E-03    2.23       1.6  T
   4   -120.7592784 -0.198126E-05  0.245E-03    2.23       4.5  T
   5   -120.7592787 -0.220392E-06  0.103E-03    2.23      10.7  T
   6   -120.7592787 -0.487893E-07  0.383E-04    2.23      28.6  T
   7   -120.7592787 -0.955083E-09  0.225E-04    2.23      48.9  T
     SCC iter.                  ...        0 min,  0.917 sec
     gradient                   ...        0 min,  0.120 sec
 * total energy  :  -118.8477399 Eh     change       -0.1644288E-03 Eh
   gradient norm :     0.0041496 Eh/α   predicted    -0.1176146E-03 ( -28.47%)
   displ. norm   :     0.2549740 α      lambda       -0.1813381E-03
   maximum displ.:     0.1297538 α      in ANC's #3, #5, #11, ...

........................................................................
.............................. CYCLE   10 ..............................
........................................................................

 iter      E             dE          RMSdq      gap      omega  full diag
   1   -120.7600089 -0.120760E+03  0.433E-02    2.23       0.0  T
   2   -120.7600109 -0.199836E-05  0.231E-02    2.24       1.0  T
   3   -120.7600103  0.668135E-06  0.639E-03    2.24       1.7  T
   4   -120.7600110 -0.793496E-06  0.288E-03    2.24       3.8  T
   5   -120.7600113 -0.247242E-06  0.116E-03    2.24       9.5  T
   6   -120.7600114 -0.890889E-07  0.384E-04    2.24      28.6  T
   7   -120.7600114 -0.296922E-08  0.228E-04    2.24      48.2  T
     SCC iter.                  ...        0 min,  1.026 sec
     gradient                   ...        0 min,  0.117 sec
 * total energy  :  -118.8478809 Eh     change       -0.1409812E-03 Eh
   gradient norm :     0.0039847 Eh/α   predicted    -0.9656487E-04 ( -31.51%)
   displ. norm   :     0.2934150 α      lambda       -0.1765021E-03
   maximum displ.:     0.1530505 α      in ANC's #3, #5, #11, ...

........................................................................
.............................. CYCLE   11 ..............................
........................................................................

 iter      E             dE          RMSdq      gap      omega  full diag
   1   -120.7595231 -0.120760E+03  0.520E-02    2.24       0.0  T
   2   -120.7595255 -0.237929E-05  0.264E-02    2.25       1.0  T
   3   -120.7595253  0.243917E-06  0.684E-03    2.25       1.6  T
   4   -120.7595253 -0.342952E-07  0.357E-03    2.25       3.1  T
   5   -120.7595259 -0.556896E-06  0.128E-03    2.25       8.6  T
   6   -120.7595260 -0.119687E-06  0.444E-04    2.25      24.7  T
   7   -120.7595260 -0.591305E-08  0.259E-04    2.25      42.4  T
     SCC iter.                  ...        0 min,  0.936 sec
     gradient                   ...        0 min,  0.120 sec
 * total energy  :  -118.8480210 Eh     change       -0.1401002E-03 Eh
   gradient norm :     0.0045970 Eh/α   predicted    -0.9585024E-04 ( -31.58%)
   displ. norm   :     0.3245592 α      lambda       -0.1697924E-03
   maximum displ.:     0.1718630 α      in ANC's #3, #5, #6, ...

........................................................................
.............................. CYCLE   12 ..............................
........................................................................

 iter      E             dE          RMSdq      gap      omega  full diag
   1   -120.7584586 -0.120758E+03  0.578E-02    2.25       0.0  T
   2   -120.7584611 -0.251166E-05  0.289E-02    2.26       1.0  T
   3   -120.7584607  0.433170E-06  0.748E-03    2.26       1.5  T
   4   -120.7584601  0.547046E-06  0.462E-03    2.26       2.4  T
   5   -120.7584616 -0.145076E-05  0.114E-03    2.26       9.6  T
   6   -120.7584617 -0.862885E-07  0.520E-04    2.26      21.1  T
   7   -120.7584617 -0.966089E-08  0.313E-04    2.26      35.0  T
     SCC iter.                  ...        0 min,  0.936 sec
     gradient                   ...        0 min,  0.117 sec
 * total energy  :  -118.8481557 Eh     change       -0.1346589E-03 Eh
   gradient norm :     0.0045849 Eh/α   predicted    -0.9384147E-04 ( -30.31%)
   displ. norm   :     0.3334823 α      lambda       -0.1548640E-03
   maximum displ.:     0.1796501 α      in ANC's #3, #5, #6, ...

........................................................................
.............................. CYCLE   13 ..............................
........................................................................

 iter      E             dE          RMSdq      gap      omega  full diag
   1   -120.7576582 -0.120758E+03  0.577E-02    2.27       0.0  T
   2   -120.7576605 -0.228961E-05  0.293E-02    2.27       1.0  T
   3   -120.7576594  0.104490E-05  0.784E-03    2.27       1.4  T
   4   -120.7576592  0.253946E-06  0.520E-03    2.27       2.1  T
   5   -120.7576610 -0.184185E-05  0.114E-03    2.27       9.6  T
   6   -120.7576611 -0.883404E-07  0.579E-04    2.27      19.0  T
   7   -120.7576611 -0.110374E-07  0.356E-04    2.27      30.9  T
     SCC iter.                  ...        0 min,  1.053 sec
     gradient                   ...        0 min,  0.115 sec
 * total energy  :  -118.8482782 Eh     change       -0.1225352E-03 Eh
   gradient norm :     0.0039923 Eh/α   predicted    -0.8604695E-04 ( -29.78%)
   displ. norm   :     0.3282178 α      lambda       -0.1411037E-03
   maximum displ.:     0.1801888 α      in ANC's #3, #5, #1, ...

........................................................................
.............................. CYCLE   14 ..............................
........................................................................

 iter      E             dE          RMSdq      gap      omega  full diag
   1   -120.7576385 -0.120758E+03  0.548E-02    2.28       0.0  T
   2   -120.7576404 -0.194887E-05  0.289E-02    2.28       1.0  T
   3   -120.7576384  0.204165E-05  0.796E-03    2.28       1.4  T
   4   -120.7576395 -0.106416E-05  0.497E-03    2.29       2.2  T
   5   -120.7576410 -0.154921E-05  0.126E-03    2.28       8.7  T
   6   -120.7576411 -0.104964E-06  0.608E-04    2.28      18.1  T
   7   -120.7576411 -0.105416E-07  0.385E-04    2.28      28.5  T
     SCC iter.                  ...        0 min,  1.010 sec
     gradient                   ...        0 min,  0.118 sec
 * total energy  :  -118.8483892 Eh     change       -0.1109805E-03 Eh
   gradient norm :     0.0035366 Eh/α   predicted    -0.7815244E-04 ( -29.58%)
   displ. norm   :     0.3204027 α      lambda       -0.1259384E-03
   maximum displ.:     0.1777962 α      in ANC's #3, #5, #1, ...

........................................................................
.............................. CYCLE   15 ..............................
........................................................................

 iter      E             dE          RMSdq      gap      omega  full diag
   1   -120.7583013 -0.120758E+03  0.527E-02    2.29       0.0  T
   2   -120.7583029 -0.161671E-05  0.290E-02    2.30       1.0  T
   3   -120.7582998  0.316455E-05  0.787E-03    2.30       1.4  T
   4   -120.7583024 -0.269535E-05  0.425E-03    2.30       2.6  T
   5   -120.7583035 -0.106617E-05  0.124E-03    2.30       8.8  T
   6   -120.7583036 -0.876448E-07  0.587E-04    2.30      18.7  T
   7   -120.7583036 -0.921982E-08  0.369E-04    2.30      29.8  T
     SCC iter.                  ...        0 min,  0.970 sec
     gradient                   ...        0 min,  0.119 sec
 * total energy  :  -118.8484864 Eh     change       -0.9721238E-04 Eh
   gradient norm :     0.0034035 Eh/α   predicted    -0.6943827E-04 ( -28.57%)
   displ. norm   :     0.3043244 α      lambda       -0.1026184E-03
   maximum displ.:     0.1677737 α      in ANC's #3, #5, #2, ...

........................................................................
.............................. CYCLE   16 ..............................
........................................................................

 iter      E             dE          RMSdq      gap      omega  full diag
   1   -120.7590804 -0.120759E+03  0.496E-02    2.31       0.0  T
   2   -120.7590815 -0.113245E-05  0.280E-02    2.31       1.0  T
   3   -120.7590779  0.364610E-05  0.725E-03    2.30       1.5  T
   4   -120.7590815 -0.363834E-05  0.320E-03    2.31       3.4  T
   5   -120.7590821 -0.541921E-06  0.108E-03    2.31      10.2  T
   6   -120.7590821 -0.621012E-07  0.494E-04    2.31      22.2  T
   7   -120.7590821 -0.565302E-08  0.298E-04    2.31      36.9  T
     SCC iter.                  ...        0 min,  0.833 sec
     gradient                   ...        0 min,  0.117 sec
 * total energy  :  -118.8485649 Eh     change       -0.7849608E-04 Eh
   gradient norm :     0.0031036 Eh/α   predicted    -0.5606379E-04 ( -28.58%)
   displ. norm   :     0.2910432 α      lambda       -0.8391447E-04
   maximum displ.:     0.1560259 α      in ANC's #3, #5, #2, ...

........................................................................
.............................. CYCLE   17 ..............................
........................................................................

 iter      E             dE          RMSdq      gap      omega  full diag
   1   -120.7596544 -0.120760E+03  0.467E-02    2.31       0.0  T
   2   -120.7596552 -0.751577E-06  0.268E-02    2.31       1.0  T
   3   -120.7596519  0.327532E-05  0.641E-03    2.31       1.7  T
   4   -120.7596553 -0.344923E-05  0.236E-03    2.31       4.7  T
   5   -120.7596556 -0.243923E-06  0.961E-04    2.31      11.4  T
   6   -120.7596556 -0.564349E-07  0.354E-04    2.31      31.0  T
     SCC iter.                  ...        0 min,  0.747 sec
     gradient                   ...        0 min,  0.115 sec
 * total energy  :  -118.8486297 Eh     change       -0.6476461E-04 Eh
   gradient norm :     0.0026602 Eh/α   predicted    -0.4551352E-04 ( -29.72%)
   displ. norm   :     0.2935050 α      lambda       -0.7636222E-04
   maximum displ.:     0.1509019 α      in ANC's #5, #3, #2, ...

........................................................................
.............................. CYCLE   18 ..............................
........................................................................

 iter      E             dE          RMSdq      gap      omega  full diag
   1   -120.7599056 -0.120760E+03  0.468E-02    2.32       0.0  T
   2   -120.7599062 -0.681865E-06  0.270E-02    2.32       1.0  T
   3   -120.7599032  0.308004E-05  0.619E-03    2.32       1.8  T
   4   -120.7599065 -0.331117E-05  0.196E-03    2.32       5.6  T
   5   -120.7599066 -0.154004E-06  0.933E-04    2.32      11.8  T
   6   -120.7599067 -0.555627E-07  0.291E-04    2.32      37.7  T
     SCC iter.                  ...        0 min,  0.884 sec
     gradient                   ...        0 min,  0.115 sec
 * total energy  :  -118.8486891 Eh     change       -0.5944881E-04 Eh
   gradient norm :     0.0026071 Eh/α   predicted    -0.4147391E-04 ( -30.24%)
   displ. norm   :     0.2856308 α      lambda       -0.7152207E-04
   maximum displ.:     0.1428127 α      in ANC's #5, #3, #2, ...

........................................................................
.............................. CYCLE   19 ..............................
........................................................................

 iter      E             dE          RMSdq      gap      omega  full diag
   1   -120.7600192 -0.120760E+03  0.462E-02    2.32       0.0  T
   2   -120.7600200 -0.769500E-06  0.267E-02    2.32       1.0  T
   3   -120.7600176  0.236363E-05  0.575E-03    2.32       1.9  T
   4   -120.7600202 -0.255986E-05  0.183E-03    2.32       6.0  T
   5   -120.7600203 -0.137962E-06  0.876E-04    2.32      12.5  T
   6   -120.7600204 -0.522066E-07  0.304E-04    2.32      36.2  T
     SCC iter.                  ...        0 min,  0.882 sec
     gradient                   ...        0 min,  0.115 sec
 * total energy  :  -118.8487448 Eh     change       -0.5573811E-04 Eh
   gradient norm :     0.0028345 Eh/α   predicted    -0.3867938E-04 ( -30.61%)
   displ. norm   :     0.2629080 α      lambda       -0.6388327E-04
   maximum displ.:     0.1260189 α      in ANC's #5, #3, #2, ...

........................................................................
.............................. CYCLE   20 ..............................
........................................................................

 iter      E             dE          RMSdq      gap      omega  full diag
   1   -120.7599265 -0.120760E+03  0.441E-02    2.32       0.0  T
   2   -120.7599274 -0.877764E-06  0.253E-02    2.32       1.0  T
   3   -120.7599258  0.159285E-05  0.533E-03    2.32       2.1  T
   4   -120.7599275 -0.171657E-05  0.195E-03    2.32       5.6  T
   5   -120.7599277 -0.148022E-06  0.897E-04    2.32      12.2  T
   6   -120.7599277 -0.625236E-07  0.336E-04    2.32      32.7  T
     SCC iter.                  ...        0 min,  0.749 sec
     gradient                   ...        0 min,  0.121 sec
 * total energy  :  -118.8487937 Eh     change       -0.4884487E-04 Eh
   gradient norm :     0.0026281 Eh/α   predicted    -0.3415105E-04 ( -30.08%)
   displ. norm   :     0.2125421 α      lambda       -0.4917081E-04
   maximum displ.:     0.0980147 α      in ANC's #7, #5, #2, ...
 * RMSD in coord.:     0.4855750 α      energy gain  -0.3036640E-01 Eh

generating ANC from exact Hessian ...
Using Lindh-Hessian (1995)
 Shifting diagonal of input Hessian by    9.8687392809617917E-003
 Lowest  eigenvalues of input Hessian
    0.000000    0.000000    0.000000    0.000000    0.000000    0.000000
    0.010000    0.010029    0.010086    0.010254    0.010302    0.010385
    0.010608    0.010690    0.011072    0.011165    0.011282    0.011615
 Highest eigenvalues
    2.015727    2.017274    2.025258    2.071333    2.112936    2.125414


........................................................................
.............................. CYCLE   21 ..............................
........................................................................

 iter      E             dE          RMSdq      gap      omega  full diag
   1   -120.7600559 -0.120760E+03  0.372E-02    2.32       0.0  T
   2   -120.7600566 -0.638409E-06  0.211E-02    2.32       1.0  T
   3   -120.7600558  0.753121E-06  0.420E-03    2.32       2.6  T
   4   -120.7600566 -0.785777E-06  0.185E-03    2.32       5.9  T
   5   -120.7600568 -0.148451E-06  0.675E-04    2.32      16.3  T
   6   -120.7600568 -0.337254E-07  0.311E-04    2.32      35.3  T
     SCC iter.                  ...        0 min,  0.544 sec
     gradient                   ...        0 min,  0.115 sec
 * total energy  :  -118.8488304 Eh     change       -0.3670658E-04 Eh
   gradient norm :     0.0019659 Eh/α   predicted     0.0000000E+00 (-100.00%)
   displ. norm   :     0.0406463 α      lambda       -0.1437241E-04
   maximum displ.:     0.0156464 α      in ANC's #13, #8, #14, ...

........................................................................
.............................. CYCLE   22 ..............................
........................................................................

 iter      E             dE          RMSdq      gap      omega  full diag
   1   -120.7601690 -0.120760E+03  0.933E-03    2.32       0.0  T
   2   -120.7601692 -0.137020E-06  0.529E-03    2.32       2.1  T
   3   -120.7601691  0.559603E-07  0.161E-03    2.32       6.8  T
   4   -120.7601692 -0.792405E-07  0.539E-04    2.32      20.4  T
   5   -120.7601692 -0.330537E-08  0.266E-04    2.32      41.3  T
     SCC iter.                  ...        0 min,  0.548 sec
     gradient                   ...        0 min,  0.117 sec
 * total energy  :  -118.8488491 Eh     change       -0.1874328E-04 Eh
   gradient norm :     0.0007677 Eh/α   predicted    -0.7694727E-05 ( -58.95%)
   displ. norm   :     0.1393242 α      lambda       -0.3411411E-04
   maximum displ.:     0.0619639 α      in ANC's #13, #4, #8, ...

........................................................................
.............................. CYCLE   23 ..............................
........................................................................

 iter      E             dE          RMSdq      gap      omega  full diag
   1   -120.7601893 -0.120760E+03  0.288E-02    2.32       0.0  T
   2   -120.7601900 -0.685437E-06  0.164E-02    2.32       1.0  T
   3   -120.7601898  0.207346E-06  0.352E-03    2.32       3.1  T
   4   -120.7601901 -0.301567E-06  0.139E-03    2.32       7.9  T
   5   -120.7601901 -0.221222E-07  0.638E-04    2.32      17.2  T
   6   -120.7601901 -0.222237E-07  0.265E-04    2.32      41.4  T
     SCC iter.                  ...        0 min,  0.658 sec
     gradient                   ...        0 min,  0.117 sec
 * total energy  :  -118.8488780 Eh     change       -0.2880839E-04 Eh
   gradient norm :     0.0021397 Eh/α   predicted    -0.1720530E-04 ( -40.28%)
   displ. norm   :     0.0884087 α      lambda       -0.2412273E-04
   maximum displ.:     0.0360487 α      in ANC's #4, #13, #8, ...

........................................................................
.............................. CYCLE   24 ..............................
........................................................................

 iter      E             dE          RMSdq      gap      omega  full diag
   1   -120.7602310 -0.120760E+03  0.206E-02    2.32       0.0  T
   2   -120.7602317 -0.613470E-06  0.110E-02    2.32       1.0  T
   3   -120.7602314  0.242416E-06  0.324E-03    2.32       3.4  T
   4   -120.7602316 -0.162159E-06  0.171E-03    2.32       6.4  T
   5   -120.7602317 -0.156542E-06  0.820E-04    2.32      13.4  T
   6   -120.7602318 -0.417468E-07  0.324E-04    2.32      33.9  T
     SCC iter.                  ...        0 min,  0.843 sec
     gradient                   ...        0 min,  0.118 sec
 * total energy  :  -118.8488911 Eh     change       -0.1310414E-04 Eh
   gradient norm :     0.0025126 Eh/α   predicted    -0.1215574E-04 (  -7.24%)
   displ. norm   :     0.0785844 α      lambda       -0.1850012E-04
   maximum displ.:     0.0339276 α      in ANC's #4, #13, #8, ...

........................................................................
.............................. CYCLE   25 ..............................
........................................................................

 iter      E             dE          RMSdq      gap      omega  full diag
   1   -120.7602688 -0.120760E+03  0.154E-02    2.31       0.0  T
   2   -120.7602689 -0.167225E-06  0.847E-03    2.31       1.3  T
   3   -120.7602688  0.135642E-06  0.204E-03    2.32       5.4  T
   4   -120.7602690 -0.153152E-06  0.887E-04    2.32      12.4  T
   5   -120.7602690 -0.232089E-07  0.346E-04    2.32      31.7  T
     SCC iter.                  ...        0 min,  0.557 sec
     gradient                   ...        0 min,  0.116 sec
 * total energy  :  -118.8489070 Eh     change       -0.1594521E-04 Eh
   gradient norm :     0.0020001 Eh/α   predicted    -0.9309028E-05 ( -41.62%)
   displ. norm   :     0.2468166 α      lambda       -0.5555000E-04
   maximum displ.:     0.1083247 α      in ANC's #4, #13, #5, ...

........................................................................
.............................. CYCLE   26 ..............................
........................................................................

 iter      E             dE          RMSdq      gap      omega  full diag
   1   -120.7600953 -0.120760E+03  0.460E-02    2.31       0.0  T
   2   -120.7600965 -0.119744E-05  0.256E-02    2.31       1.0  T
   3   -120.7600953  0.121606E-05  0.583E-03    2.31       1.9  T
   4   -120.7600967 -0.136032E-05  0.242E-03    2.31       4.5  T
   5   -120.7600969 -0.209116E-06  0.806E-04    2.31      13.6  T
   6   -120.7600969 -0.359112E-07  0.401E-04    2.31      27.4  T
     SCC iter.                  ...        0 min,  0.846 sec
     gradient                   ...        0 min,  0.116 sec
 * total energy  :  -118.8489461 Eh     change       -0.3905696E-04 Eh
   gradient norm :     0.0013646 Eh/α   predicted    -0.2946721E-04 ( -24.55%)
   displ. norm   :     0.3002753 α      lambda       -0.3052918E-04
   maximum displ.:     0.1386546 α      in ANC's #4, #5, #10, ...

........................................................................
.............................. CYCLE   27 ..............................
........................................................................

 iter      E             dE          RMSdq      gap      omega  full diag
   1   -120.7597728 -0.120760E+03  0.520E-02    2.31       0.0  T
   2   -120.7597744 -0.161621E-05  0.290E-02    2.31       1.0  T
   3   -120.7597724  0.209770E-05  0.710E-03    2.31       1.5  T
   4   -120.7597747 -0.234489E-05  0.285E-03    2.31       3.9  T
   5   -120.7597750 -0.280523E-06  0.112E-03    2.31       9.8  T
   6   -120.7597750 -0.682910E-07  0.560E-04    2.31      19.6  T
   7   -120.7597751 -0.121626E-07  0.341E-04    2.31      32.2  T
     SCC iter.                  ...        0 min,  0.941 sec
     gradient                   ...        0 min,  0.117 sec
 * total energy  :  -118.8489753 Eh     change       -0.2926533E-04 Eh
   gradient norm :     0.0026687 Eh/α   predicted    -0.1587651E-04 ( -45.75%)
   displ. norm   :     0.1182236 α      lambda       -0.2636698E-04
   maximum displ.:     0.0567291 α      in ANC's #4, #5, #2, ...

........................................................................
.............................. CYCLE   28 ..............................
........................................................................

 iter      E             dE          RMSdq      gap      omega  full diag
   1   -120.7603716 -0.120760E+03  0.174E-02    2.31       0.0  T
   2   -120.7603719 -0.239020E-06  0.941E-03    2.31       1.2  T
   3   -120.7603716  0.280967E-06  0.288E-03    2.31       3.8  T
   4   -120.7603719 -0.331704E-06  0.108E-03    2.31      10.2  T
   5   -120.7603719 -0.390877E-07  0.308E-04    2.31      35.7  T
   6   -120.7603720 -0.384617E-08  0.147E-04    2.31      74.5  T
     SCC iter.                  ...        0 min,  0.823 sec
     gradient                   ...        0 min,  0.115 sec
 * total energy  :  -118.8489992 Eh     change       -0.2383713E-04 Eh
   gradient norm :     0.0024313 Eh/α   predicted    -0.1337022E-04 ( -43.91%)
   displ. norm   :     0.3235236 α      lambda       -0.7786006E-04
   maximum displ.:     0.1537412 α      in ANC's #4, #5, #2, ...

........................................................................
.............................. CYCLE   29 ..............................
........................................................................

 iter      E             dE          RMSdq      gap      omega  full diag
   1   -120.7610126 -0.120761E+03  0.432E-02    2.31       0.0  T
   2   -120.7610141 -0.142256E-05  0.238E-02    2.31       1.0  T
   3   -120.7610122  0.182150E-05  0.685E-03    2.31       1.6  T
   4   -120.7610143 -0.204248E-05  0.276E-03    2.31       4.0  T
   5   -120.7610146 -0.321048E-06  0.759E-04    2.31      14.5  T
   6   -120.7610146 -0.182729E-07  0.424E-04    2.31      25.9  T
     SCC iter.                  ...        0 min,  0.789 sec
     gradient                   ...        0 min,  0.122 sec
 * total energy  :  -118.8490631 Eh     change       -0.6397335E-04 Eh
   gradient norm :     0.0019184 Eh/α   predicted    -0.4300656E-04 ( -32.77%)
   displ. norm   :     0.6524357 α      lambda       -0.8406202E-04
   maximum displ.:     0.3116937 α      in ANC's #4, #5, #2, ...

........................................................................
.............................. CYCLE   30 ..............................
........................................................................

 iter      E             dE          RMSdq      gap      omega  full diag
   1   -120.7590146 -0.120759E+03  0.832E-02    2.30       0.0  T
   2   -120.7590198 -0.520923E-05  0.463E-02    2.30       1.0  T
   3   -120.7590133  0.649352E-05  0.124E-02    2.30       1.0  T
   4   -120.7590201 -0.684798E-05  0.541E-03    2.30       2.0  T
   5   -120.7590216 -0.141657E-05  0.180E-03    2.30       6.1  T
   6   -120.7590217 -0.151062E-06  0.902E-04    2.30      12.2  T
   7   -120.7590218 -0.432247E-07  0.457E-04    2.30      24.0  T
     SCC iter.                  ...        0 min,  0.951 sec
     gradient                   ...        0 min,  0.116 sec
 * total energy  :  -118.8491313 Eh     change       -0.6819359E-04 Eh
   gradient norm :     0.0058901 Eh/α   predicted    -0.4998640E-04 ( -26.70%)
   displ. norm   :     0.1302719 α      lambda       -0.7016527E-04
   maximum displ.:     0.0579048 α      in ANC's #5, #2, #13, ...

........................................................................
.............................. CYCLE   31 ..............................
........................................................................

 iter      E             dE          RMSdq      gap      omega  full diag
   1   -120.7614092 -0.120761E+03  0.227E-02    2.31       0.0  T
   2   -120.7614096 -0.325575E-06  0.132E-02    2.31       1.0  T
   3   -120.7614092  0.398938E-06  0.262E-03    2.31       4.2  T
   4   -120.7614096 -0.420210E-06  0.106E-03    2.31      10.4  T
   5   -120.7614097 -0.579109E-07  0.471E-04    2.31      23.3  T
   6   -120.7614097 -0.536426E-08  0.269E-04    2.31      40.8  T
     SCC iter.                  ...        0 min,  0.738 sec
     gradient                   ...        0 min,  0.114 sec
 * total energy  :  -118.8491775 Eh     change       -0.4616251E-04 Eh
   gradient norm :     0.0036775 Eh/α   predicted    -0.3568103E-04 ( -22.71%)
   displ. norm   :     0.2400206 α      lambda       -0.6566153E-04
   maximum displ.:     0.1180051 α      in ANC's #4, #5, #2, ...

........................................................................
.............................. CYCLE   32 ..............................
........................................................................

 iter      E             dE          RMSdq      gap      omega  full diag
   1   -120.7620194 -0.120762E+03  0.292E-02    2.31       0.0  T
   2   -120.7620199 -0.472369E-06  0.170E-02    2.31       1.0  T
   3   -120.7620189  0.968452E-06  0.398E-03    2.31       2.8  T
   4   -120.7620200 -0.109721E-05  0.135E-03    2.31       8.1  T
   5   -120.7620201 -0.496614E-07  0.652E-04    2.31      16.8  T
   6   -120.7620201 -0.147242E-07  0.314E-04    2.31      35.0  T
     SCC iter.                  ...        0 min,  0.971 sec
     gradient                   ...        0 min,  0.115 sec
 * total energy  :  -118.8492351 Eh     change       -0.5765006E-04 Eh
   gradient norm :     0.0028314 Eh/α   predicted    -0.3472251E-04 ( -39.77%)
   displ. norm   :     0.4897773 α      lambda       -0.1269192E-03
   maximum displ.:     0.2425190 α      in ANC's #4, #5, #2, ...

........................................................................
.............................. CYCLE   33 ..............................
........................................................................

 iter      E             dE          RMSdq      gap      omega  full diag
   1   -120.7609053 -0.120761E+03  0.599E-02    2.31       0.0  T
   2   -120.7609075 -0.218868E-05  0.341E-02    2.31       1.0  T
   3   -120.7609033  0.419231E-05  0.913E-03    2.32       1.2  T
   4   -120.7609081 -0.482194E-05  0.310E-03    2.32       3.5  T
   5   -120.7609083 -0.251044E-06  0.138E-03    2.32       7.9  T
   6   -120.7609084 -0.973928E-07  0.619E-04    2.32      17.7  T
   7   -120.7609085 -0.236591E-07  0.295E-04    2.32      37.2  T
     SCC iter.                  ...        0 min,  0.884 sec
     gradient                   ...        0 min,  0.120 sec
 * total energy  :  -118.8493299 Eh     change       -0.9472908E-04 Eh
   gradient norm :     0.0028367 Eh/α   predicted    -0.7868807E-04 ( -16.93%)
   displ. norm   :     0.3744369 α      lambda       -0.7067031E-04
   maximum displ.:     0.1919533 α      in ANC's #5, #4, #2, ...

........................................................................
.............................. CYCLE   34 ..............................
........................................................................

 iter      E             dE          RMSdq      gap      omega  full diag
   1   -120.7602148 -0.120760E+03  0.448E-02    2.32       0.0  T
   2   -120.7602159 -0.111401E-05  0.249E-02    2.32       1.0  T
   3   -120.7602135  0.241385E-05  0.724E-03    2.32       1.5  T
   4   -120.7602163 -0.276408E-05  0.262E-03    2.32       4.2  T
   5   -120.7602164 -0.160004E-06  0.994E-04    2.32      11.0  T
   6   -120.7602165 -0.675134E-07  0.425E-04    2.32      25.8  T
     SCC iter.                  ...        0 min,  0.700 sec
     gradient                   ...        0 min,  0.115 sec
 * total energy  :  -118.8493811 Eh     change       -0.5118221E-04 Eh
   gradient norm :     0.0035507 Eh/α   predicted    -0.4028965E-04 ( -21.28%)
   displ. norm   :     0.2503228 α      lambda       -0.5545314E-04
   maximum displ.:     0.1326807 α      in ANC's #5, #2, #4, ...

........................................................................
.............................. CYCLE   35 ..............................
........................................................................

 iter      E             dE          RMSdq      gap      omega  full diag
   1   -120.7613334 -0.120761E+03  0.306E-02    2.32       0.0  T
   2   -120.7613340 -0.619429E-06  0.162E-02    2.33       1.0  T
   3   -120.7613331  0.858849E-06  0.507E-03    2.33       2.2  T
   4   -120.7613341 -0.979875E-06  0.218E-03    2.33       5.0  T
   5   -120.7613342 -0.120822E-06  0.650E-04    2.33      16.9  T
   6   -120.7613342 -0.297965E-07  0.284E-04    2.33      38.6  T
     SCC iter.                  ...        0 min,  0.696 sec
     gradient                   ...        0 min,  0.117 sec
 * total energy  :  -118.8494233 Eh     change       -0.4226720E-04 Eh
   gradient norm :     0.0033657 Eh/α   predicted    -0.2946688E-04 ( -30.28%)
   displ. norm   :     0.4098461 α      lambda       -0.7215091E-04
   maximum displ.:     0.2151473 α      in ANC's #5, #4, #2, ...

........................................................................
.............................. CYCLE   36 ..............................
........................................................................

 iter      E             dE          RMSdq      gap      omega  full diag
   1   -120.7605025 -0.120761E+03  0.426E-02    2.33       0.0  T
   2   -120.7605038 -0.136119E-05  0.239E-02    2.33       1.0  T
   3   -120.7605014  0.242801E-05  0.752E-03    2.33       1.5  T
   4   -120.7605041 -0.273734E-05  0.272E-03    2.33       4.0  T
   5   -120.7605044 -0.274378E-06  0.930E-04    2.33      11.8  T
   6   -120.7605044 -0.396955E-07  0.476E-04    2.33      23.1  T
     SCC iter.                  ...        0 min,  0.828 sec
     gradient                   ...        0 min,  0.121 sec
 * total energy  :  -118.8494783 Eh     change       -0.5495347E-04 Eh
   gradient norm :     0.0035819 Eh/α   predicted    -0.4213778E-04 ( -23.32%)
   displ. norm   :     0.3456779 α      lambda       -0.8334952E-04
   maximum displ.:     0.1869211 α      in ANC's #5, #2, #4, ...

........................................................................
.............................. CYCLE   37 ..............................
........................................................................

 iter      E             dE          RMSdq      gap      omega  full diag
   1   -120.7624252 -0.120762E+03  0.377E-02    2.33       0.0  T
   2   -120.7624265 -0.127299E-05  0.209E-02    2.34       1.0  T
   3   -120.7624251  0.140592E-05  0.665E-03    2.34       1.6  T
   4   -120.7624267 -0.163585E-05  0.229E-03    2.34       4.8  T
   5   -120.7624269 -0.199571E-06  0.849E-04    2.34      12.9  T
   6   -120.7624270 -0.327261E-07  0.363E-04    2.34      30.2  T
     SCC iter.                  ...        0 min,  0.730 sec
     gradient                   ...        0 min,  0.119 sec
 * total energy  :  -118.8495310 Eh     change       -0.5276624E-04 Eh
   gradient norm :     0.0022631 Eh/α   predicted    -0.4665586E-04 ( -11.58%)
   displ. norm   :     0.3196332 α      lambda       -0.4265317E-04
   maximum displ.:     0.1713666 α      in ANC's #5, #4, #2, ...

........................................................................
.............................. CYCLE   38 ..............................
........................................................................

 iter      E             dE          RMSdq      gap      omega  full diag
   1   -120.7618983 -0.120762E+03  0.315E-02    2.34       0.0  T
   2   -120.7618992 -0.902286E-06  0.183E-02    2.34       1.0  T
   3   -120.7618981  0.115006E-05  0.489E-03    2.34       2.2  T
   4   -120.7618993 -0.122239E-05  0.212E-03    2.34       5.2  T
   5   -120.7618995 -0.254043E-06  0.669E-04    2.34      16.4  T
   6   -120.7618995 -0.439115E-10  0.381E-04    2.34      28.8  T
     SCC iter.                  ...        0 min,  0.681 sec
     gradient                   ...        0 min,  0.118 sec
 * total energy  :  -118.8495581 Eh     change       -0.2702609E-04 Eh
   gradient norm :     0.0033940 Eh/α   predicted    -0.2350782E-04 ( -13.02%)
   displ. norm   :     0.1657528 α      lambda       -0.3820806E-04
   maximum displ.:     0.0869474 α      in ANC's #5, #2, #4, ...

........................................................................
.............................. CYCLE   39 ..............................
........................................................................

 iter      E             dE          RMSdq      gap      omega  full diag
   1   -120.7633040 -0.120763E+03  0.204E-02    2.34       0.0  T
   2   -120.7633045 -0.467006E-06  0.117E-02    2.35       1.0  T
   3   -120.7633041  0.352212E-06  0.304E-03    2.35       3.6  T
   4   -120.7633045 -0.431852E-06  0.108E-03    2.35      10.2  T
   5   -120.7633046 -0.493458E-07  0.434E-04    2.35      25.3  T
   6   -120.7633046 -0.721737E-08  0.158E-04    2.35      69.4  T
     SCC iter.                  ...        0 min,  0.750 sec
     gradient                   ...        0 min,  0.122 sec
 * total energy  :  -118.8495870 Eh     change       -0.2893074E-04 Eh
   gradient norm :     0.0024627 Eh/α   predicted    -0.1963108E-04 ( -32.14%)
   displ. norm   :     0.2235390 α      lambda       -0.4257324E-04
   maximum displ.:     0.1150229 α      in ANC's #2, #5, #4, ...

........................................................................
.............................. CYCLE   40 ..............................
........................................................................

 iter      E             dE          RMSdq      gap      omega  full diag
   1   -120.7639003 -0.120764E+03  0.276E-02    2.35       0.0  T
   2   -120.7639012 -0.809003E-06  0.157E-02    2.35       1.0  T
   3   -120.7639007  0.494549E-06  0.382E-03    2.35       2.9  T
   4   -120.7639013 -0.594381E-06  0.165E-03    2.35       6.7  T
   5   -120.7639013 -0.937189E-07  0.692E-04    2.35      15.9  T
   6   -120.7639014 -0.276713E-07  0.271E-04    2.35      40.4  T
     SCC iter.                  ...        0 min,  0.602 sec
     gradient                   ...        0 min,  0.116 sec
 * total energy  :  -118.8496179 Eh     change       -0.3090493E-04 Eh
   gradient norm :     0.0021720 Eh/α   predicted    -0.2235494E-04 ( -27.67%)
   displ. norm   :     0.2037227 α      lambda       -0.3335676E-04
   maximum displ.:     0.1121698 α      in ANC's #2, #5, #4, ...

........................................................................
.............................. CYCLE   41 ..............................
........................................................................

 iter      E             dE          RMSdq      gap      omega  full diag
   1   -120.7644755 -0.120764E+03  0.242E-02    2.35       0.0  T
   2   -120.7644760 -0.513593E-06  0.139E-02    2.35       1.0  T
   3   -120.7644756  0.447115E-06  0.325E-03    2.35       3.4  T
   4   -120.7644761 -0.499497E-06  0.154E-03    2.35       7.1  T
   5   -120.7644762 -0.893782E-07  0.646E-04    2.35      17.0  T
   6   -120.7644762 -0.264607E-07  0.241E-04    2.35      45.6  T
     SCC iter.                  ...        0 min,  0.712 sec
     gradient                   ...        0 min,  0.117 sec
 * total energy  :  -118.8496434 Eh     change       -0.2547008E-04 Eh
   gradient norm :     0.0024596 Eh/α   predicted    -0.1737257E-04 ( -31.79%)
   displ. norm   :     0.2002563 α      lambda       -0.3590597E-04
   maximum displ.:     0.1178428 α      in ANC's #2, #5, #4, ...

........................................................................
.............................. CYCLE   42 ..............................
........................................................................

 iter      E             dE          RMSdq      gap      omega  full diag
   1   -120.7642660 -0.120764E+03  0.230E-02    2.35       0.0  T
   2   -120.7642665 -0.428763E-06  0.132E-02    2.35       1.0  T
   3   -120.7642661  0.416910E-06  0.308E-03    2.35       3.6  T
   4   -120.7642665 -0.484396E-06  0.140E-03    2.35       7.8  T
   5   -120.7642666 -0.746990E-07  0.507E-04    2.35      21.7  T
   6   -120.7642666 -0.122732E-07  0.206E-04    2.35      53.2  T
     SCC iter.                  ...        0 min,  0.725 sec
     gradient                   ...        0 min,  0.118 sec
 * total energy  :  -118.8496724 Eh     change       -0.2904509E-04 Eh
   gradient norm :     0.0024015 Eh/α   predicted    -0.1867750E-04 ( -35.69%)
   displ. norm   :     0.2451652 α      lambda       -0.5107162E-04
   maximum displ.:     0.1485121 α      in ANC's #2, #5, #4, ...
 * RMSD in coord.:     0.5392500 α      energy gain  -0.8787216E-03 Eh

generating ANC from exact Hessian ...
Using Lindh-Hessian (1995)
 Shifting diagonal of input Hessian by    9.8355368094800305E-003
 Lowest  eigenvalues of input Hessian
    0.000000    0.000000    0.000000    0.000000    0.000000    0.000000
    0.010000    0.010017    0.010118    0.010233    0.010276    0.010416
    0.010605    0.010689    0.011077    0.011258    0.011346    0.011630
 Highest eigenvalues
    2.015392    2.025892    2.066423    2.080246    2.116217    2.125396


........................................................................
.............................. CYCLE   43 ..............................
........................................................................

 iter      E             dE          RMSdq      gap      omega  full diag
   1   -120.7648271 -0.120765E+03  0.283E-02    2.35       0.0  T
   2   -120.7648277 -0.674938E-06  0.164E-02    2.35       1.0  T
   3   -120.7648268  0.974847E-06  0.438E-03    2.35       2.5  T
   4   -120.7648279 -0.114169E-05  0.172E-03    2.35       6.4  T
   5   -120.7648280 -0.950305E-07  0.657E-04    2.35      16.7  T
   6   -120.7648280 -0.159635E-07  0.271E-04    2.35      40.5  T
     SCC iter.                  ...        0 min,  0.880 sec
     gradient                   ...        0 min,  0.119 sec
 * total energy  :  -118.8497123 Eh     change       -0.3992839E-04 Eh
   gradient norm :     0.0029961 Eh/α   predicted     0.0000000E+00 (-100.00%)
   displ. norm   :     0.0323193 α      lambda       -0.2584000E-04
   maximum displ.:     0.0139960 α      in ANC's #2, #10, #15, ...

........................................................................
.............................. CYCLE   44 ..............................
........................................................................

 iter      E             dE          RMSdq      gap      omega  full diag
   1   -120.7643228 -0.120764E+03  0.819E-03    2.35       0.0  T
   2   -120.7643230 -0.131276E-06  0.419E-03    2.35       2.6  T
   3   -120.7643229  0.163332E-07  0.141E-03    2.35       7.8  T
   4   -120.7643230 -0.289161E-07  0.657E-04    2.35      16.7  T
   5   -120.7643230 -0.114758E-07  0.229E-04    2.35      48.0  T
     SCC iter.                  ...        0 min,  0.668 sec
     gradient                   ...        0 min,  0.124 sec
 * total energy  :  -118.8497351 Eh     change       -0.2271535E-04 Eh
   gradient norm :     0.0017086 Eh/α   predicted    -0.1371252E-04 ( -39.63%)
   displ. norm   :     0.1617098 α      lambda       -0.6418010E-04
   maximum displ.:     0.0735744 α      in ANC's #2, #10, #15, ...

........................................................................
.............................. CYCLE   45 ..............................
........................................................................

 iter      E             dE          RMSdq      gap      omega  full diag
   1   -120.7628025 -0.120763E+03  0.315E-02    2.34       0.0  T
   2   -120.7628049 -0.241668E-05  0.174E-02    2.34       1.0  T
   3   -120.7628036  0.138542E-05  0.753E-03    2.34       1.5  T
   4   -120.7628055 -0.196546E-05  0.278E-03    2.34       4.0  T
   5   -120.7628057 -0.147326E-06  0.138E-03    2.34       8.0  T
   6   -120.7628058 -0.120646E-06  0.508E-04    2.34      21.6  T
   7   -120.7628058 -0.137551E-07  0.249E-04    2.34      44.0  T
     SCC iter.                  ...        0 min,  0.962 sec
     gradient                   ...        0 min,  0.115 sec
 * total energy  :  -118.8497728 Eh     change       -0.3770788E-04 Eh
   gradient norm :     0.0042201 Eh/α   predicted    -0.3246400E-04 ( -13.91%)
   displ. norm   :     0.0434397 α      lambda       -0.3199131E-04
   maximum displ.:     0.0204069 α      in ANC's #2, #10, #15, ...

........................................................................
.............................. CYCLE   46 ..............................
........................................................................

 iter      E             dE          RMSdq      gap      omega  full diag
   1   -120.7633464 -0.120763E+03  0.167E-02    2.34       0.0  T
   2   -120.7633471 -0.655262E-06  0.797E-03    2.34       1.4  T
   3   -120.7633471  0.197390E-08  0.269E-03    2.34       4.1  T
   4   -120.7633471 -0.659098E-08  0.145E-03    2.34       7.6  T
   5   -120.7633471 -0.718291E-07  0.666E-04    2.34      16.5  T
   6   -120.7633472 -0.923774E-08  0.349E-04    2.34      31.4  T
     SCC iter.                  ...        0 min,  0.764 sec
     gradient                   ...        0 min,  0.120 sec
 * total energy  :  -118.8497952 Eh     change       -0.2243111E-04 Eh
   gradient norm :     0.0034984 Eh/α   predicted    -0.1603333E-04 ( -28.52%)
   displ. norm   :     0.0799279 α      lambda       -0.5014751E-04
   maximum displ.:     0.0424890 α      in ANC's #2, #6, #3, ...

........................................................................
.............................. CYCLE   47 ..............................
........................................................................

 iter      E             dE          RMSdq      gap      omega  full diag
   1   -120.7644926 -0.120764E+03  0.175E-02    2.34       0.0  T
   2   -120.7644933 -0.683760E-06  0.101E-02    2.34       1.1  T
   3   -120.7644932  0.177431E-06  0.362E-03    2.34       3.0  T
   4   -120.7644934 -0.243775E-06  0.177E-03    2.34       6.2  T
   5   -120.7644935 -0.111987E-06  0.648E-04    2.34      16.9  T
   6   -120.7644935 -0.859325E-08  0.297E-04    2.34      36.9  T
     SCC iter.                  ...        0 min,  0.839 sec
     gradient                   ...        0 min,  0.116 sec
 * total energy  :  -118.8498347 Eh     change       -0.3949178E-04 Eh
   gradient norm :     0.0022325 Eh/α   predicted    -0.2524148E-04 ( -36.08%)
   displ. norm   :     0.1948260 α      lambda       -0.8383873E-04
   maximum displ.:     0.1029892 α      in ANC's #2, #3, #6, ...

........................................................................
.............................. CYCLE   48 ..............................
........................................................................

 iter      E             dE          RMSdq      gap      omega  full diag
   1   -120.7653383 -0.120765E+03  0.397E-02    2.34       0.0  T
   2   -120.7653416 -0.322128E-05  0.237E-02    2.35       1.0  T
   3   -120.7653398  0.176346E-05  0.882E-03    2.35       1.2  T
   4   -120.7653419 -0.210770E-05  0.410E-03    2.35       2.7  T
   5   -120.7653426 -0.725077E-06  0.147E-03    2.35       7.5  T
   6   -120.7653427 -0.316630E-07  0.742E-04    2.35      14.8  T
   7   -120.7653427 -0.301908E-07  0.375E-04    2.35      29.3  T
     SCC iter.                  ...        0 min,  0.966 sec
     gradient                   ...        0 min,  0.137 sec
 * total energy  :  -118.8498930 Eh     change       -0.5826317E-04 Eh
   gradient norm :     0.0059344 Eh/α   predicted    -0.4351111E-04 ( -25.32%)
   displ. norm   :     0.1814544 α      lambda       -0.7235731E-04
   maximum displ.:     0.0952772 α      in ANC's #2, #3, #6, ...

........................................................................
.............................. CYCLE   49 ..............................
........................................................................

 iter      E             dE          RMSdq      gap      omega  full diag
   1   -120.7652433 -0.120765E+03  0.367E-02    2.35       0.0  T
   2   -120.7652459 -0.258588E-05  0.225E-02    2.35       1.0  T
   3   -120.7652442  0.175258E-05  0.758E-03    2.35       1.4  T
   4   -120.7652463 -0.213075E-05  0.334E-03    2.35       3.3  T
   5   -120.7652468 -0.488642E-06  0.132E-03    2.35       8.3  T
   6   -120.7652468 -0.190014E-07  0.671E-04    2.35      16.4  T
   7   -120.7652468 -0.281463E-07  0.313E-04    2.35      35.1  T
     SCC iter.                  ...        0 min,  0.863 sec
     gradient                   ...        0 min,  0.121 sec
 * total energy  :  -118.8499486 Eh     change       -0.5567919E-04 Eh
   gradient norm :     0.0092336 Eh/α   predicted    -0.3737047E-04 ( -32.88%)
   displ. norm   :     0.2724092 α      lambda       -0.1675028E-03
   maximum displ.:     0.1368506 α      in ANC's #2, #3, #6, ...

........................................................................
.............................. CYCLE   50 ..............................
........................................................................

 iter      E             dE          RMSdq      gap      omega  full diag
   1   -120.7643257 -0.120764E+03  0.598E-02    2.35       0.0  T
   2   -120.7643314 -0.576996E-05  0.366E-02    2.36       1.0  T
   3   -120.7643274  0.403004E-05  0.103E-02    2.36       1.1  T
   4   -120.7643324 -0.496641E-05  0.455E-03    2.36       2.4  T
   5   -120.7643332 -0.797346E-06  0.194E-03    2.36       5.7  T
   6   -120.7643333 -0.824686E-07  0.940E-04    2.36      11.7  T
   7   -120.7643333 -0.525345E-07  0.445E-04    2.36      24.7  T
     SCC iter.                  ...        0 min,  1.002 sec
     gradient                   ...        0 min,  0.120 sec
 * total energy  :  -118.8500729 Eh     change       -0.1242627E-03 Eh
   gradient norm :     0.0115447 Eh/α   predicted    -0.8996660E-04 ( -27.60%)
   displ. norm   :     0.2515932 α      lambda       -0.2420474E-03
   maximum displ.:     0.1315829 α      in ANC's #3, #2, #6, ...

........................................................................
.............................. CYCLE   51 ..............................
........................................................................

 iter      E             dE          RMSdq      gap      omega  full diag
   1   -120.7633026 -0.120763E+03  0.623E-02    2.35       0.0  T
   2   -120.7633070 -0.435586E-05  0.372E-02    2.36       1.0  T
   3   -120.7633049  0.202687E-05  0.782E-03    2.36       1.4  T
   4   -120.7633075 -0.256173E-05  0.413E-03    2.36       2.7  T
   5   -120.7633082 -0.666825E-06  0.139E-03    2.36       7.9  T
   6   -120.7633082 -0.531165E-07  0.715E-04    2.36      15.3  T
   7   -120.7633082 -0.168633E-07  0.430E-04    2.36      25.5  T
     SCC iter.                  ...        0 min,  0.826 sec
     gradient                   ...        0 min,  0.121 sec
 * total energy  :  -118.8502430 Eh     change       -0.1701409E-03 Eh
   gradient norm :     0.0080581 Eh/α   predicted    -0.1286847E-03 ( -24.37%)
   displ. norm   :     0.4933912 α      lambda       -0.3099669E-03
   maximum displ.:     0.2446765 α      in ANC's #2, #3, #6, ...

........................................................................
.............................. CYCLE   52 ..............................
........................................................................

 iter      E             dE          RMSdq      gap      omega  full diag
   1   -120.7568841 -0.120757E+03  0.116E-01    2.34       0.0  T
   2   -120.7569081 -0.240484E-04  0.711E-02    2.35       1.0  T
   3   -120.7568920  0.161030E-04  0.230E-02    2.34       1.0  T
   4   -120.7569123 -0.203131E-04  0.755E-03    2.35       1.5  T
   5   -120.7569152 -0.283749E-05  0.338E-03    2.35       3.3  T
   6   -120.7569153 -0.132697E-06  0.148E-03    2.35       7.4  T
   7   -120.7569153 -0.272517E-07  0.103E-03    2.35      10.6  T
   8   -120.7569154 -0.275027E-07  0.600E-04    2.35      18.3  T
   9   -120.7569154 -0.363619E-08  0.335E-04    2.35      32.8  T
     SCC iter.                  ...        0 min,  1.394 sec
     gradient                   ...        0 min,  0.116 sec
 * total energy  :  -118.8502383 Eh     change        0.4780590E-05 Eh
   gradient norm :     0.0225569 Eh/α   predicted    -0.1927130E-03 (*******%)
   displ. norm   :     0.1437020 α      lambda       -0.7229494E-03
   maximum displ.:     0.0503531 α      in ANC's #25, #14, #10, ...

........................................................................
.............................. CYCLE   53 ..............................
........................................................................

 iter      E             dE          RMSdq      gap      omega  full diag
   1   -120.7621146 -0.120762E+03  0.411E-02    2.34       0.0  T
   2   -120.7621210 -0.642973E-05  0.199E-02    2.33       1.0  T
   3   -120.7621209  0.114891E-06  0.981E-03    2.33       1.1  T
   4   -120.7621215 -0.607690E-06  0.307E-03    2.33       3.6  T
   5   -120.7621219 -0.321708E-06  0.184E-03    2.33       6.0  T
   6   -120.7621220 -0.149391E-06  0.694E-04    2.33      15.8  T
   7   -120.7621220 -0.145021E-07  0.316E-04    2.33      34.7  T
     SCC iter.                  ...        0 min,  0.971 sec
     gradient                   ...        0 min,  0.117 sec
 * total energy  :  -118.8505703 Eh     change       -0.3320293E-03 Eh
   gradient norm :     0.0063705 Eh/α   predicted    -0.3689438E-03 (  11.12%)
   displ. norm   :     0.1858653 α      lambda       -0.1616126E-03
   maximum displ.:     0.0971517 α      in ANC's #3, #2, #14, ...

........................................................................
.............................. CYCLE   54 ..............................
........................................................................

 iter      E             dE          RMSdq      gap      omega  full diag
   1   -120.7624664 -0.120762E+03  0.409E-02    2.33       0.0  T
   2   -120.7624694 -0.292620E-05  0.260E-02    2.33       1.0  T
   3   -120.7624661  0.321929E-05  0.840E-03    2.33       1.3  T
   4   -120.7624700 -0.386007E-05  0.266E-03    2.33       4.1  T
   5   -120.7624704 -0.351556E-06  0.117E-03    2.33       9.4  T
   6   -120.7624704 -0.839249E-08  0.620E-04    2.33      17.7  T
   7   -120.7624704 -0.143673E-07  0.384E-04    2.33      28.6  T
     SCC iter.                  ...        0 min,  1.000 sec
     gradient                   ...        0 min,  0.120 sec
 * total energy  :  -118.8507115 Eh     change       -0.1412356E-03 Eh
   gradient norm :     0.0048932 Eh/α   predicted    -0.8360391E-04 ( -40.81%)
   displ. norm   :     0.4462575 α      lambda       -0.3356859E-03
   maximum displ.:     0.2255325 α      in ANC's #3, #14, #2, ...

........................................................................
.............................. CYCLE   55 ..............................
........................................................................

 iter      E             dE          RMSdq      gap      omega  full diag
   1   -120.7624492 -0.120762E+03  0.926E-02    2.33       0.0  T
   2   -120.7624679 -0.186604E-04  0.583E-02    2.33       1.0  T
   3   -120.7624522  0.156466E-04  0.210E-02    2.33       1.0  T
   4   -120.7624714 -0.192354E-04  0.660E-03    2.33       1.7  T
   5   -120.7624737 -0.229194E-05  0.299E-03    2.33       3.7  T
   6   -120.7624738 -0.616745E-07  0.177E-03    2.33       6.2  T
   7   -120.7624739 -0.126843E-06  0.106E-03    2.33      10.3  T
   8   -120.7624739 -0.195790E-07  0.573E-04    2.33      19.2  T
   9   -120.7624739 -0.330756E-08  0.304E-04    2.33      36.2  T
     SCC iter.                  ...        0 min,  1.397 sec
     gradient                   ...        0 min,  0.116 sec
 * total energy  :  -118.8508374 Eh     change       -0.1259265E-03 Eh
   gradient norm :     0.0112461 Eh/α   predicted    -0.2012819E-03 (  59.84%)
   displ. norm   :     0.1196083 α      lambda       -0.1829051E-03
   maximum displ.:     0.0530067 α      in ANC's #3, #2, #6, ...

........................................................................
.............................. CYCLE   56 ..............................
........................................................................

 iter      E             dE          RMSdq      gap      omega  full diag
   1   -120.7657837 -0.120766E+03  0.373E-02    2.33       0.0  T
   2   -120.7657862 -0.244717E-05  0.208E-02    2.33       1.0  T
   3   -120.7657855  0.640565E-06  0.719E-03    2.34       1.5  T
   4   -120.7657865 -0.981971E-06  0.192E-03    2.33       5.7  T
   5   -120.7657866 -0.135709E-06  0.101E-03    2.34      10.9  T
   6   -120.7657867 -0.270919E-07  0.355E-04    2.33      30.9  T
   7   -120.7657867  0.896421E-10  0.238E-04    2.34      46.2  T
     SCC iter.                  ...        0 min,  0.945 sec
     gradient                   ...        0 min,  0.119 sec
 * total energy  :  -118.8509175 Eh     change       -0.8008478E-04 Eh
   gradient norm :     0.0037456 Eh/α   predicted    -0.9275344E-04 (  15.82%)
   displ. norm   :     0.0942448 α      lambda       -0.5007197E-04
   maximum displ.:     0.0464256 α      in ANC's #3, #14, #2, ...

........................................................................
.............................. CYCLE   57 ..............................
........................................................................

 iter      E             dE          RMSdq      gap      omega  full diag
   1   -120.7648583 -0.120765E+03  0.188E-02    2.33       0.0  T
   2   -120.7648589 -0.567968E-06  0.112E-02    2.33       1.0  T
   3   -120.7648585  0.394481E-06  0.339E-03    2.33       3.2  T
   4   -120.7648590 -0.462085E-06  0.128E-03    2.33       8.6  T
   5   -120.7648590 -0.733788E-07  0.578E-04    2.33      19.0  T
   6   -120.7648590 -0.487314E-08  0.319E-04    2.33      34.4  T
     SCC iter.                  ...        0 min,  0.877 sec
     gradient                   ...        0 min,  0.122 sec
 * total energy  :  -118.8509579 Eh     change       -0.4032201E-04 Eh
   gradient norm :     0.0024907 Eh/α   predicted    -0.2526504E-04 ( -37.34%)
   displ. norm   :     0.2135283 α      lambda       -0.7434435E-04
   maximum displ.:     0.1005484 α      in ANC's #3, #14, #2, ...

........................................................................
.............................. CYCLE   58 ..............................
........................................................................

[...]
    15   6 C        2.915    -0.049    29.215     8.863
    16   6 C        2.918    -0.033    28.822     8.804
    17   6 C        2.986     0.012    27.739     8.639
    18   6 C        2.919    -0.031    28.776     8.797
    19   6 C        2.915    -0.023    28.576     8.766
    20   6 C        2.917    -0.023    28.582     8.767
    21   6 C        2.917    -0.033    28.825     8.804
    22   6 C        2.988     0.012    27.743     8.640
    23   7 N        2.683    -0.120    23.610     7.217
    24   6 C        3.879    -0.038    21.203     6.547
    25  15 P        4.509     0.275   148.587    21.897
    26   7 N        2.637    -0.221    25.835     7.549
    27   6 C        3.923     0.086    19.092     6.210
    28   6 C        3.816    -0.069    21.808     6.646
    29   6 C        3.861    -0.014    20.790     6.484
    30   6 C        3.815    -0.069    21.803     6.646
    31   6 C        3.862    -0.014    20.779     6.482
    32   6 C        3.815    -0.067    21.773     6.641
    33   6 C        3.861    -0.014    20.793     6.485
    34   6 C        3.815    -0.068    21.796     6.645
    35   6 C        3.818    -0.067    21.777     6.641
    36   6 C        3.823    -0.061    21.652     6.622
    37  16 S        1.899    -0.058   143.460    20.159
    38  16 S        2.088    -0.056   143.395    20.154
    39   6 C        2.974     0.037    27.168     8.550
    40   6 C        2.961    -0.033    28.813     8.804
    41   6 C        2.922    -0.024    28.598     8.770
    42   6 C        2.919    -0.022    28.550     8.762
    43   6 C        2.922    -0.023    28.588     8.768
    44   6 C        2.953    -0.030    28.750     8.794
    45   1 H        0.925     0.061     2.187     2.312
    46   1 H        0.924     0.062     2.177     2.308
    47   1 H        0.924     0.061     2.189     2.314
    48   1 H        0.926     0.039     2.466     2.456
    49   1 H        0.926     0.054     2.265     2.354
    50   1 H        0.926     0.049     2.327     2.385
    51   1 H        0.926     0.053     2.286     2.364
    52   1 H        0.926     0.050     2.321     2.382
    53   1 H        0.926     0.041     2.441     2.443
    54   1 H        0.926     0.049     2.335     2.390
    55   1 H        0.926     0.053     2.280     2.361
    56   1 H        0.926     0.048     2.343     2.394
    57   1 H        0.926     0.050     2.315     2.379
    58   1 H        0.926     0.047     2.356     2.401
    59   1 H        0.926     0.037     2.494     2.470
    60   1 H        0.925     0.078     2.003     2.213
    61   1 H        0.925     0.061     2.188     2.313
    62   1 H        0.924     0.064     2.150     2.293
    63   1 H        0.881     0.206     1.075     1.623
    64   1 H        0.924     0.035     2.517     2.481
    65   1 H        0.924     0.038     2.471     2.458
    66   1 H        0.924     0.043     2.413     2.429
    67   1 H        0.924     0.051     2.312     2.378
    68   1 H        0.924     0.038     2.473     2.459
    69   1 H        0.924     0.039     2.459     2.452
    70   1 H        0.924     0.037     2.490     2.468
    71   1 H        0.924     0.051     2.311     2.377
    72   1 H        0.924     0.043     2.405     2.425
    73   1 H        0.924     0.050     2.322     2.383
    74   1 H        0.924     0.040     2.455     2.450
    75   1 H        0.924     0.043     2.409     2.427
    76   1 H        0.924     0.038     2.474     2.460
    77   1 H        0.924     0.042     2.424     2.435
    78   1 H        0.924     0.041     2.442     2.444
    79   1 H        0.926     0.047     2.361     2.403
    80   1 H        0.926     0.051     2.308     2.376
    81   1 H        0.926     0.058     2.227     2.334
    82   1 H        0.926     0.058     2.222     2.331
    83   1 H        0.926     0.054     2.276     2.359

 Mol. C6AA /au·bohr⁶  :      91818.526154
 Mol. C8AA /au·bohr⁸  :    2467681.901216
 Mol. α(0) /au        :        481.763196


Wiberg/Mayer (AO) data.
largest (>0.10) Wiberg bond orders for each atom

 ---------------------------------------------------------------------------
     #   Z sym  total        # sym  WBO       # sym  WBO       # sym  WBO
 ---------------------------------------------------------------------------
     1   6 C    3.959 --    47 H    0.977    46 H    0.976     2 N    0.975
                            45 H    0.967
     2   7 N    3.409 --    25 P    1.239     1 C    0.975     3 C    0.946
     3   6 C    3.949 --    12 C    1.456     4 C    1.290     2 N    0.946
     4   6 C    3.988 --     5 C    1.556     3 C    1.290    48 H    0.960
     5   6 C    3.984 --     4 C    1.556     6 C    1.273    49 H    0.966
                            12 C    0.106
     6   6 C    3.988 --     7 C    1.282     5 C    1.273    11 C    1.252
     7   6 C    3.988 --     8 C    1.553     6 C    1.282    50 H    0.967
                            10 C    0.117
     8   6 C    3.986 --     7 C    1.553     9 C    1.324    51 H    0.969
     9   6 C    3.990 --    10 C    1.551     8 C    1.324    52 H    0.969
    10   6 C    3.988 --     9 C    1.551    11 C    1.286    53 H    0.965
                             7 C    0.117
    11   6 C    3.987 --    10 C    1.286     6 C    1.252    12 C    1.234
    12   6 C    3.987 --     3 C    1.456    11 C    1.234    13 C    1.029
                             5 C    0.106
    13   6 C    3.986 --    14 C    1.450    22 C    1.236    12 C    1.029
                            16 C    0.106
    14   6 C    3.948 --    13 C    1.450    15 C    1.286    23 N    0.987
    15   6 C    3.988 --    16 C    1.555    14 C    1.286    54 H    0.963
    16   6 C    3.985 --    15 C    1.555    17 C    1.272    55 H    0.966
                            13 C    0.106
    17   6 C    3.988 --    18 C    1.281    16 C    1.272    22 C    1.253
    18   6 C    3.988 --    19 C    1.554    17 C    1.281    56 H    0.967
                            21 C    0.117
    19   6 C    3.985 --    18 C    1.554    20 C    1.323    57 H    0.969
    20   6 C    3.990 --    21 C    1.553    19 C    1.323    58 H    0.970
    21   6 C    3.989 --    20 C    1.553    22 C    1.283    59 H    0.965
                            18 C    0.117
    22   6 C    3.987 --    21 C    1.283    17 C    1.253    13 C    1.236
    23   7 N    3.432 --    25 P    1.215    14 C    0.987    24 C    0.973
    24   6 C    3.961 --    60 H    0.976    23 N    0.973    62 H    0.971
                            61 H    0.965
    25  15 P    5.177 --    26 N    1.294     2 N    1.239    23 N    1.215
                            37 S    0.989
    26   7 N    3.359 --    25 P    1.294    27 C    0.924    63 H    0.894
    27   6 C    3.945 --    36 C    0.989    28 C    0.983    35 C    0.980
                            26 N    0.924
    28   6 C    3.992 --    29 C    0.992    27 C    0.983    64 H    0.974
                            65 H    0.965
    29   6 C    3.994 --    30 C    0.999    34 C    0.998    28 C    0.992
                            66 H    0.966
    30   6 C    3.996 --    29 C    0.999    31 C    0.998    68 H    0.975
                            67 H    0.974
    31   6 C    3.993 --    30 C    0.998    32 C    0.996    36 C    0.991
                            69 H    0.967
    32   6 C    3.994 --    33 C    0.999    31 C    0.996    70 H    0.975
                            71 H    0.973
    33   6 C    3.993 --    32 C    0.999    34 C    0.999    35 C    0.991
                            72 H    0.966
    34   6 C    3.995 --    33 C    0.999    29 C    0.998    74 H    0.975
                            73 H    0.974
    35   6 C    3.991 --    33 C    0.991    27 C    0.980    75 H    0.974
                            76 H    0.973
    36   6 C    3.987 --    31 C    0.991    27 C    0.989    78 H    0.964
                            77 H    0.941
    37  16 S    2.460 --    38 S    1.142    25 P    0.989
    38  16 S    2.317 --    37 S    1.142    39 C    0.977
    39   6 C    3.954 --    40 C    1.408    44 C    1.406    38 S    0.977
                            42 C    0.103
    40   6 C    3.990 --    41 C    1.438    39 C    1.408    79 H    0.963
                            43 C    0.109
    41   6 C    3.991 --    42 C    1.439    40 C    1.438    80 H    0.968
                            44 C    0.110
    42   6 C    3.981 --    41 C    1.439    43 C    1.433    81 H    0.969
                            39 C    0.103
    43   6 C    3.990 --    44 C    1.443    42 C    1.433    82 H    0.967
                            40 C    0.109
    44   6 C    3.989 --    43 C    1.443    39 C    1.406    83 H    0.967
                            41 C    0.110
    45   1 H    0.996 --     1 C    0.967
    46   1 H    0.996 --     1 C    0.976
    47   1 H    0.996 --     1 C    0.977
    48   1 H    0.997 --     4 C    0.960
    49   1 H    0.996 --     5 C    0.966
    50   1 H    0.997 --     7 C    0.967
    51   1 H    0.996 --     8 C    0.969
    52   1 H    0.997 --     9 C    0.969
    53   1 H    0.998 --    10 C    0.965
    54   1 H    0.997 --    15 C    0.963
    55   1 H    0.996 --    16 C    0.966
    56   1 H    0.997 --    18 C    0.967
    57   1 H    0.997 --    19 C    0.969
    58   1 H    0.997 --    20 C    0.970
    59   1 H    0.998 --    21 C    0.965
    60   1 H    0.994 --    24 C    0.976
    61   1 H    0.995 --    24 C    0.965
    62   1 H    0.995 --    24 C    0.971
    63   1 H    0.957 --    26 N    0.894
    64   1 H    0.999 --    28 C    0.974
    65   1 H    0.998 --    28 C    0.965
    66   1 H    0.998 --    29 C    0.966
    67   1 H    0.997 --    30 C    0.974
    68   1 H    0.998 --    30 C    0.975
    69   1 H    0.998 --    31 C    0.967
    70   1 H    0.999 --    32 C    0.975
    71   1 H    0.996 --    32 C    0.973
    72   1 H    0.997 --    33 C    0.966
    73   1 H    0.997 --    34 C    0.974
    74   1 H    0.998 --    34 C    0.975
    75   1 H    0.998 --    35 C    0.974
    76   1 H    0.998 --    35 C    0.973
    77   1 H    0.998 --    36 C    0.941
    78   1 H    0.998 --    36 C    0.964
    79   1 H    0.998 --    40 C    0.963
    80   1 H    0.997 --    41 C    0.968
    81   1 H    0.996 --    42 C    0.969
    82   1 H    0.997 --    43 C    0.967
    83   1 H    0.997 --    44 C    0.967
 ---------------------------------------------------------------------------

Topologies differ in total number of bonds
Writing topology from bond orders to xtbtopo.mol

molecular dipole:
                 x           y           z       tot (Debye)
 q only:       -0.035      -0.177      -0.034
   full:       -0.211      -0.134      -0.265       0.925
molecular quadrupole (traceless):
                xx          xy          yy          xz          yz          zz
 q only:       19.142      -5.400      -9.156      10.092     -11.523      -9.985
  q+dip:       16.529      -4.519      -9.044       9.864     -10.032      -7.485
   full:       14.353      -5.226      -6.299      10.193     -12.217      -8.054

           -------------------------------------------------
          |                Geometry Summary                 |
           -------------------------------------------------

      molecular mass/u    :      632.8410999
   center of mass at/Å    :       -0.2508514       0.0031447      -0.3407724
  moments of inertia/u·Å² :        0.5043944E+04   0.7738342E+04   0.1050058E+05
rotational constants/cm⁻¹ :        0.3342153E-02   0.2178455E-02   0.1605400E-02

 * 89 selected distances

     #   Z          #   Z                                           value/Å
     1   6 C        2   7 N                                       1.4504387
     2   7 N        3   6 C                                       1.4368945
     3   6 C        4   6 C                                       1.4038400
     4   6 C        5   6 C                                       1.3648276
     5   6 C        6   6 C                                       1.4113009
     6   6 C        7   6 C                                       1.4102068
     7   6 C        8   6 C                                       1.3668563
     8   6 C        9   6 C                                       1.4029040
     9   6 C       10   6 C                                       1.3675276
     6   6 C       11   6 C                                       1.4207973
    10   6 C       11   6 C                                       1.4109168
     3   6 C       12   6 C                                       1.3755757
    11   6 C       12   6 C                                       1.4231741
    13   6 C       14   6 C                                       1.3803846
    14   6 C       15   6 C                                       1.4080987
    15   6 C       16   6 C                                       1.3649287
    16   6 C       17   6 C                                       1.4101490
    17   6 C       18   6 C                                       1.4100734
    18   6 C       19   6 C                                       1.3665331
    19   6 C       20   6 C                                       1.4030778
    20   6 C       21   6 C                                       1.3674342
    13   6 C       22   6 C                                       1.4239844
    17   6 C       22   6 C                                       1.4195419
    21   6 C       22   6 C                                       1.4116877
    14   6 C       23   7 N                                       1.4280340
    23   7 N       24   6 C                                       1.4597372
     2   7 N       25  15 P                                       1.6446405
    23   7 N       25  15 P                                       1.6608359
    25  15 P       26   7 N                                       1.6428240
    26   7 N       27   6 C                                       1.4703231
    27   6 C       28   6 C                                       1.5283929
    28   6 C       29   6 C                                       1.5297570
    29   6 C       30   6 C                                       1.5276428
    30   6 C       31   6 C                                       1.5275570
    31   6 C       32   6 C                                       1.5283328
    32   6 C       33   6 C                                       1.5276563
    29   6 C       34   6 C                                       1.5281405
    33   6 C       34   6 C                                       1.5280230
    27   6 C       35   6 C                                       1.5288863
    33   6 C       35   6 C                                       1.5307754
    27   6 C       36   6 C                                       1.5227110
    31   6 C       36   6 C                                       1.5294147
    25  15 P       37  16 S                                       2.1327677 (max)
    37  16 S       38  16 S                                       2.0534598
    39   6 C       40   6 C                                       1.3852760
    40   6 C       41   6 C                                       1.3843214
    41   6 C       42   6 C                                       1.3856300
    42   6 C       43   6 C                                       1.3864236
    39   6 C       44   6 C                                       1.3859184
    43   6 C       44   6 C                                       1.3834660
     1   6 C       45   1 H                                       1.0888585
     1   6 C       46   1 H                                       1.0909812
     1   6 C       47   1 H                                       1.0919650
     4   6 C       48   1 H                                       1.0792653
     5   6 C       49   1 H                                       1.0794626
     7   6 C       50   1 H                                       1.0797845
     8   6 C       51   1 H                                       1.0790076
     9   6 C       52   1 H                                       1.0791761
    10   6 C       53   1 H                                       1.0791438
    15   6 C       54   1 H                                       1.0772903
    16   6 C       55   1 H                                       1.0793618
    18   6 C       56   1 H                                       1.0798059
    19   6 C       57   1 H                                       1.0790058
    20   6 C       58   1 H                                       1.0792874
    21   6 C       59   1 H                                       1.0791838
    24   6 C       60   1 H                                       1.0894192
    24   6 C       61   1 H                                       1.0898611
    24   6 C       62   1 H                                       1.0932189
    26   7 N       63   1 H                                       1.0134466 (min)
    28   6 C       64   1 H                                       1.0931093
    28   6 C       65   1 H                                       1.0941135
    29   6 C       66   1 H                                       1.0937821
    30   6 C       67   1 H                                       1.0903606
    30   6 C       68   1 H                                       1.0920338
    31   6 C       69   1 H                                       1.0942860
    32   6 C       70   1 H                                       1.0920018
    32   6 C       71   1 H                                       1.0903821
    33   6 C       72   1 H                                       1.0938229
    34   6 C       73   1 H                                       1.0904211
    34   6 C       74   1 H                                       1.0917343
    35   6 C       75   1 H                                       1.0919222
    35   6 C       76   1 H                                       1.0924367
    36   6 C       77   1 H                                       1.0956802
    36   6 C       78   1 H                                       1.0912168
    40   6 C       79   1 H                                       1.0783517
    41   6 C       80   1 H                                       1.0792412
    42   6 C       81   1 H                                       1.0788720
    43   6 C       82   1 H                                       1.0788188
    44   6 C       83   1 H                                       1.0801075

 * 7 distinct bonds (by element types)

   Z      Z             #   av. dist./Å        max./Å        min./Å
   1 H    6 C          38     1.0862309     1.0956802     1.0772903
   6 C    6 C          40     1.4343036     1.5307754     1.3648276
   1 H    7 N           1     1.0134466     1.0134466     1.0134466
   6 C    7 N           5     1.4490855     1.4703231     1.4280340
   7 N   15 P           3     1.6494335     1.6608359     1.6428240
  15 P   16 S           1     2.1327677     2.1327677     2.1327677
  16 S   16 S           1     2.0534598     2.0534598     2.0534598


optimized geometry written to: xtbopt.xyz


           -------------------------------------------------
          | TOTAL ENERGY             -118.851198329572 Eh   |
          | GRADIENT NORM               0.000020147557 Eh/α |
          | HOMO-LUMO GAP               2.329508818219 eV   |
           -------------------------------------------------

------------------------------------------------------------------------
 * finished run on 2024/12/16 at 18:48:48.252     
------------------------------------------------------------------------
 total:
 * wall-time:     0 d,  0 h,  1 min, 49.584 sec
 *  cpu-time:     0 d,  0 h, 14 min, 25.944 sec
 * ratio c/w:     7.902 speedup
 SCF:
 * wall-time:     0 d,  0 h,  0 min,  2.273 sec
 *  cpu-time:     0 d,  0 h,  0 min, 18.052 sec
 * ratio c/w:     7.943 speedup
 ANC optimizer:
 * wall-time:     0 d,  0 h,  1 min, 47.149 sec
 *  cpu-time:     0 d,  0 h, 14 min,  6.640 sec
 * ratio c/w:     7.902 speedup

