83
 energy: -118.851198329572 gnorm: 0.000020147557 xtb: 6.7.1 (edcfbbe)
C            0.34596047226888        2.17012798951733       -0.35496160508974
N           -0.03379236915493        0.79130948924377       -0.11326085682380
C           -0.84251894038987        0.48022735794784        1.03297413895632
C           -0.41390423088400        0.79346863456917        2.33256473714780
C           -1.18237152602444        0.44061590295288        3.40387555439483
C           -2.38561689195608       -0.27517026345885        3.22605395171044
C           -3.16650870409175       -0.68450079606831        4.32666261580784
C           -4.31809020343624       -1.39673273158304        4.13989647904869
C           -4.73071925756904       -1.74103143591889        2.84400491787687
C           -4.00068566549729       -1.35273598333438        1.75478092464140
C           -2.82015061379272       -0.59622517647111        1.91198823123221
C           -2.03502271569560       -0.16659407673954        0.80545518041095
C           -2.49507729854476       -0.38152339911637       -0.57963059599617
C           -1.75900518314344       -1.14366867817162       -1.46438697008972
C           -2.28053766815844       -1.46432162596688       -2.73242762101740
C           -3.49708719548715       -0.98401784711586       -3.12274219442717
C           -4.23440678862709       -0.11647242094480       -2.29072978201276
C           -5.45542943776853        0.45048103923545       -2.71022239516376
C           -6.13685437398146        1.31466991223316       -1.90012972383354
C           -5.61764523790494        1.65473540816346       -0.64179577901144
C           -4.44139429950607        1.11315786599497       -0.20247418133176
C           -3.72319918801116        0.20036984951059       -1.00489286121419
N           -0.48661199762998       -1.64885488759213       -1.05808247765191
C           -0.05383169470318       -2.91831102184134       -1.63428955780298
P            0.71117582136094       -0.57916280296730       -0.63448046115959
N            1.49712754753864       -1.35531513582473        0.58155313336464
C            2.88387809200271       -1.13541303361387        1.01791951765965
C            3.85416815775535       -1.96228552067648        0.17482783192809
C            5.28232054643504       -1.71871061878855        0.66595733959528
C            5.61967452743885       -0.23546845076372        0.52497095959699
C            4.64912599265133        0.58761065858827        1.36995982465296
C            4.75958968942189        0.17285693149796        2.83678561248482
C            4.42006483011885       -1.31051446484191        2.97119354266974
C            5.39346885330142       -2.13663375318792        2.13163095766161
C            2.98965592418971       -1.55546578791983        2.48415948963809
C            3.21897366284988        0.34407644819250        0.88574463322570
S            1.93026119538741       -0.10091050586044       -2.31787074752383
S            0.52490343519156        0.00785981726151       -3.81113388335798
C            0.02397936753880        1.72131055633968       -3.73188731286746
C           -1.30791451929061        2.01087112472741       -3.48449562464000
C           -1.70912721394234        3.33483149599304       -3.43446804164873
C           -0.78463834652263        4.34957741782413       -3.62309800010706
C            0.54519083630097        4.04563843915686       -3.87077797691649
C            0.95681660537732        2.72630765110515       -3.93329508572823
H            1.09075596736888        2.21564375427476       -1.14794373977593
H            0.76267297501354        2.63499601371216        0.53973841581390
H           -0.53404175646503        2.73587728807441       -0.66786933301618
H            0.51628500797616        1.32218151487638        2.47407073308915
H           -0.86966244432155        0.69106614293739        4.40623628295873
H           -2.83289156041059       -0.42700046268281        5.32080923879071
H           -4.91201136027024       -1.70544017370034        4.98619104542626
H           -5.63203023793900       -2.31945064378746        2.71099930543098
H           -4.32119570883281       -1.62823381063286        0.76184319724508
H           -1.71598311753123       -2.08637623337153       -3.40687580726125
H           -3.89540204348038       -1.24367557184021       -4.09173382864613
H           -5.83513449278708        0.19261637321496       -3.68762228213235
H           -7.07078459087722        1.74664687361619       -2.22481958353629
H           -6.15430100048220        2.35386759045137       -0.01883842928383
H           -4.04664122374236        1.39084180962688        0.76277140221374
H           -0.85666669432584       -3.64553935756208       -1.51840658210530
H            0.82773900085514       -3.28056259671009       -1.10570276840444
H            0.20392160572063       -2.83595013385098       -2.69349078621709
H            1.18340859208270       -2.30599792063099        0.73921241168559
H            3.60726600400805       -3.02381312062429        0.25900703069194
H            3.76303843202334       -1.67105083436611       -0.87586809774511
H            5.97442154177674       -2.31155969348976        0.06107291407695
H            6.64215875796481       -0.05593692318145        0.85840822248207
H            5.55086689616012        0.06508518629972       -0.52263136978780
H            4.88510218610876        1.65141199999140        1.26944291310867
H            4.07959114818036        0.76961595590789        3.44829877297270
H            5.77378379887390        0.35311614908742        3.19434653527651
H            4.49443425115494       -1.61022817116359        4.02052152558343
H            6.41274931970417       -1.97588543222511        2.48411542512469
H            5.16913751448261       -3.19994904336448        2.23612763969592
H            2.27822412180906       -0.98127991822461        3.08120985574643
H            2.73808265025108       -2.61360173928051        2.58651632025670
H            3.12375999017181        0.64552761013442       -0.16333900868742
H            2.51837749818283        0.93044850841910        1.48247467146783
H           -2.01857691871386        1.21240908923781       -3.34215988570811
H           -2.74600012085136        3.56764790726181       -3.24617979942833
H           -1.10088816756149        5.38028410206676       -3.58316801045102
H            1.26347426515466        4.83541151178434       -4.02626793985716
H            1.98876191823611        2.47677282838492       -4.13192344544980
