82
 energy: -135.805594361752 gnorm: 0.128109134115 xtb: 6.7.1 (edcfbbe)
C            1.52825600000000       -1.14403900000000        4.07571600000000
N            0.55120800000000       -1.04341600000000        2.99931500000000
C           -0.79110000000000       -1.19486600000000        3.55456500000000
P            0.82526700000000       -0.10883000000000        1.65263200000000
S            2.80097800000000        0.65528100000000        1.61814800000000
S            2.86571900000000        1.96093700000000        0.05185800000000
C            3.32622300000000        0.96865800000000       -1.36231800000000
C            2.38800600000000        0.92822800000000       -2.40894300000000
C            2.64875300000000        0.24319300000000       -3.59552100000000
C            3.85779400000000       -0.41740800000000       -3.75629400000000
C            4.80455900000000       -0.38005300000000       -2.73338100000000
C            4.56629900000000        0.32616200000000       -1.53235900000000
C            5.66213400000000        0.34740000000000       -0.49534300000000
F            5.85122200000000        1.55686700000000        0.10156800000000
F            6.88611300000000        0.03415800000000       -1.02495400000000
F            5.47759100000000       -0.55677000000000        0.50622100000000
N           -0.33002400000000        1.10219300000000        1.55618300000000
C           -0.68365200000000        1.89758400000000        2.69996900000000
C            0.22760900000000        2.24065300000000        3.70564900000000
C           -0.16617800000000        3.01416900000000        4.80305700000000
C           -1.48084100000000        3.45816200000000        4.91364600000000
C           -2.40374800000000        3.13240300000000        3.92548800000000
C           -2.00759400000000        2.36193900000000        2.82988100000000
C           -0.68838800000000        1.60171500000000        0.24683000000000
C           -0.42346000000000        2.95410300000000       -0.04817300000000
C           -0.73843300000000        3.50329000000000       -1.28401700000000
C           -1.30372100000000        2.71165400000000       -2.27933900000000
C           -1.55026600000000        3.26868400000000       -3.54577600000000
C           -2.07340600000000        2.49777200000000       -4.57983600000000
C           -2.34675100000000        1.15708700000000       -4.36038600000000
C           -2.11202700000000        0.59708800000000       -3.10160600000000
C           -1.60970000000000        1.35225600000000       -2.01051400000000
C           -1.36673800000000        0.79462900000000       -0.69818800000000
C           -1.83767800000000       -0.49835700000000       -0.30943100000000
C           -0.91259200000000       -1.45490400000000        0.16301700000000
C           -1.32278800000000       -2.77801300000000        0.42041400000000
C           -2.64446300000000       -3.16728900000000        0.25582300000000
C           -3.60503100000000       -2.23981800000000       -0.13891500000000
C           -4.94594800000000       -2.64607300000000       -0.25014500000000
C           -5.94463200000000       -1.74090800000000       -0.59735600000000
C           -5.61380100000000       -0.41478000000000       -0.82432700000000
C           -4.28179100000000       -0.00331700000000       -0.72197200000000
C           -3.22590900000000       -0.89806700000000       -0.40748700000000
N            0.47922900000000       -1.11438100000000        0.35432400000000
C            1.46318900000000       -2.00475900000000       -0.20022900000000
C            2.53222800000000       -2.52681500000000        0.53663900000000
C            3.45645500000000       -3.40220000000000       -0.04493900000000
C            3.31935000000000       -3.78497200000000       -1.37532400000000
C            2.25646300000000       -3.29449800000000       -2.12492300000000
C            1.34082300000000       -2.41405000000000       -1.54259500000000
H            1.30140500000000       -1.98239600000000        4.74471600000000
H            2.53139800000000       -1.34010500000000        3.68870400000000
H            1.56339500000000       -0.22991500000000        4.67488100000000
H           -1.56880000000000       -1.09556200000000        2.79503500000000
H           -0.91400400000000       -2.18967500000000        3.99636700000000
H           -0.99482500000000       -0.45023100000000        4.33052200000000
H            1.43204500000000        1.43633300000000       -2.30935400000000
H            1.90051200000000        0.22328300000000       -4.38363500000000
H            4.06499500000000       -0.96299100000000       -4.67312800000000
H            5.74885700000000       -0.90429200000000       -2.87910000000000
H            1.26594400000000        1.93798100000000        3.65068000000000
H            0.56053000000000        3.27324800000000        5.56896400000000
H           -1.78394900000000        4.05867100000000        5.76709000000000
H           -3.43253900000000        3.47312200000000        4.00420800000000
H           -2.74823600000000        2.10435100000000        2.07533800000000
H            0.05610800000000        3.58971100000000        0.69400600000000
H           -0.50212600000000        4.54911800000000       -1.46624900000000
H           -1.32455900000000        4.31551000000000       -3.74055600000000
H           -2.25518300000000        2.94198900000000       -5.55458000000000
H           -2.74087400000000        0.53931300000000       -5.16291400000000
H           -2.32050700000000       -0.46514400000000       -2.98374900000000
H           -0.60010700000000       -3.51128100000000        0.77226400000000
H           -2.91605300000000       -4.19841200000000        0.46908500000000
H           -5.22672600000000       -3.67915800000000       -0.05377300000000
H           -6.97737600000000       -2.06937100000000       -0.67481000000000
H           -6.38550400000000        0.30752900000000       -1.07729700000000
H           -4.07708300000000        1.05343500000000       -0.88464700000000
H            2.65507800000000       -2.29434600000000        1.58723800000000
H            4.27935300000000       -3.78883900000000        0.55082900000000
H            4.03647300000000       -4.46628700000000       -1.82417900000000
H            2.13983200000000       -3.58524200000000       -3.16490100000000
H            0.52771800000000       -2.02803100000000       -2.15340900000000
82
 energy: -135.823932005414 gnorm: 0.056644419447 xtb: 6.7.1 (edcfbbe)
C            1.54519543555939       -1.12681963552394        4.07722629136832
N            0.54629871952187       -1.03446667110063        3.01821479203358
C           -0.80058766015341       -1.18089563145640        3.55497085678504
P            0.78369878492665       -0.11802478504251        1.64617284681198
S            2.80818921339797        0.58203513684871        1.61335263816688
S            2.84745805878808        1.91614654147528        0.05967997536189
C            3.32450573280718        0.95631873993437       -1.37403255427570
C            2.38634894092235        0.91772722175194       -2.40326658741278
C            2.65013303676227        0.24091898190065       -3.58274450033790
C            3.85739134428522       -0.41909280317990       -3.73961770939020
C            4.80164862605030       -0.38020208282669       -2.72559766980175
C            4.56054528184007        0.32138703966302       -1.54195218444867
C            5.65330103338740        0.34566210659066       -0.50438805484237
F            5.81812017820786        1.54638942930211        0.09016552613442
F            6.86212832662929        0.03389402308893       -1.02950151492529
F            5.45149869581559       -0.54964801795834        0.49123895842744
N           -0.36010892316801        1.09688171366377        1.54600908876778
C           -0.69565507723991        1.89736320883326        2.69036740140570
C            0.22106169873733        2.23007893301384        3.68653385871790
C           -0.16815805078148        2.99617529203627        4.78126886586875
C           -1.47379447063320        3.44415805559941        4.89610645049428
C           -2.39302442258047        3.12005361914517        3.91039281103652
C           -2.00905531964953        2.35355715352380        2.82015596095435
C           -0.70710881533146        1.60673458780870        0.24065828084864
C           -0.41088023766484        2.95029886481797       -0.04603606295648
C           -0.72437197053979        3.50031335103410       -1.26406471389648
C           -1.29813623919598        2.71409988183393       -2.27522894417646
C           -1.54930462203449        3.26430059419922       -3.54649219326996
C           -2.06957498614359        2.49499572396632       -4.56097386444913
C           -2.34037119538881        1.14703655678135       -4.32939109878731
C           -2.11593661586426        0.58961979756922       -3.08546678215841
C           -1.61334808230551        1.35258388210792       -2.00739838079595
C           -1.37677249779386        0.81229184144682       -0.69557916136391
C           -1.83681793736891       -0.51699019159131       -0.32182297484443
C           -0.91798586600864       -1.45840728039259        0.14639673799837
C           -1.31571308899347       -2.77623428877773        0.42642389168064
C           -2.62105113094645       -3.16715342203844        0.26148956684427
C           -3.59885516354145       -2.24294120141381       -0.13869509140577
C           -4.94458364313207       -2.64115611662974       -0.25036805468295
C           -5.92438329408213       -1.73989946380894       -0.59552534831861
C           -5.58037108777032       -0.40816645223547       -0.82151542574065
C           -4.26451829387942        0.00281262679222       -0.72843703322415
C           -3.22211568182296       -0.89827394839094       -0.41400218090263
N            0.47033264501027       -1.11057494312949        0.33285016684759
C            1.45560209463209       -2.00149445672923       -0.21115734814924
C            2.51576297957729       -2.51455721910978        0.53351374820722
C            3.43928171852594       -3.37994183539405       -0.04361572512525
C            3.30846444573097       -3.76401271329146       -1.36761102075258
C            2.25034226303380       -3.27201549494199       -2.11530502889826
C            1.33808096880655       -2.39614868168266       -1.54572803770797
H            1.29925510436897       -1.97393867821141        4.72215573133258
H            2.53996532199315       -1.31156213042819        3.66701816418189
H            1.57381210732862       -0.22669596666402        4.69547503092955
H           -1.55648575216435       -1.08421771817435        2.77437878910096
H           -0.89706264825222       -2.18042125138718        3.98584903491618
H           -1.00420949063664       -0.44198120590347        4.33516730549893
H            1.44100270104454        1.43199160779519       -2.28996329328403
H            1.90938710235230        0.22987367000199       -4.37054023963004
H            4.07100384714325       -0.95490247157896       -4.65399625083635
H            5.74648029096785       -0.88905309160670       -2.86414438904749
H            1.25771402786932        1.92378675433161        3.62033078167883
H            0.55760690243470        3.25435686803966        5.54118749446388
H           -1.77275269965286        4.04379742485268        5.74605110037073
H           -3.41563772711480        3.46175507315212        3.99015537582207
H           -2.74071403846120        2.10298629102165        2.06360480556106
H            0.05848295590854        3.57055220606032        0.70644628567604
H           -0.50331595421688        4.54259829466149       -1.44694000547641
H           -1.32155719562476        4.30528020479347       -3.73277222356336
H           -2.25381981752722        2.93247104621335       -5.53362323844582
H           -2.72987407574993        0.53182872253249       -5.12963031462631
H           -2.32621752734109       -0.46432225841015       -2.95525273981818
H           -0.58342431483662       -3.49632058426338        0.76642427926877
H           -2.89669761821025       -4.19255452991939        0.46531329000953
H           -5.21599420917530       -3.66951567791399       -0.05241809825405
H           -6.95461690113557       -2.06195040656662       -0.67528932161492
H           -6.34964051197294        0.31086311142778       -1.07010471195027
H           -4.04891439053929        1.05049239763093       -0.89433327660181
H            2.63133194778924       -2.27062989647919        1.58155355076441
H            4.25491570153623       -3.76657276048480        0.55236904056243
H            4.01918411433928       -4.44968989119806       -1.81042190536272
H            2.12950417885459       -3.57266589740776       -3.14679146549568
H            0.51848271973996       -2.02235882400001       -2.14493405385081
82
 energy: -135.830921407847 gnorm: 0.015097889199 xtb: 6.7.1 (edcfbbe)
C            1.55997272665984       -1.10752850817043        4.08171107305614
N            0.54573538229859       -1.02029440860607        3.03749736028424
C           -0.80832161796754       -1.16880286516551        3.55570133363198
P            0.75451493989019       -0.12778723136013        1.64205107524502
S            2.78676087495812        0.52969020047604        1.59642447287394
S            2.83915703633361        1.88488390023121        0.07053600269417
C            3.31124172087905        0.93159728536576       -1.37216155526360
C            2.37677746261871        0.90507497129509       -2.39571171134953
C            2.64714703269488        0.23857645261761       -3.57567266438459
C            3.85429626466837       -0.42026029319491       -3.73097514713431
C            4.79742017213136       -0.38193120384228       -2.72064482622574
C            4.54813865699208        0.30951993877354       -1.54326873348040
C            5.63955441807429        0.34271155720243       -0.50357901927304
F            5.77829481240808        1.53581611653055        0.08857840593036
F            6.83389457488900        0.03687171906695       -1.02386254927520
F            5.42411791515563       -0.54843482182383        0.48505044072421
N           -0.38210160407210        1.08071097630215        1.53588969373920
C           -0.70723647391560        1.88410745501060        2.67819516573304
C            0.21979386251046        2.21013501579994        3.66006152031209
C           -0.16340546686620        2.97452406804918        4.75229038066636
C           -1.46528856348731        3.42557903776419        4.87329629030328
C           -2.38690739691363        3.10664627302618        3.88985740849561
C           -2.01413590637499        2.34048868132566        2.80153293998953
C           -0.71986124384698        1.60546086339812        0.23832002223609
C           -0.40584467664866        2.94821230494670       -0.03398677941820
C           -0.71382375086625        3.49817889120039       -1.24180874095428
C           -1.29230418326242        2.71576943223465       -2.26425483237896
C           -1.54568230553692        3.25859280085843       -3.54083311618007
C           -2.06478203115012        2.48672875473414       -4.54029800376078
C           -2.33741979928587        1.13298693972121       -4.29799365305785
C           -2.12079976563427        0.58058941218143       -3.06427400133930
C           -1.61282715628090        1.35387565862882       -1.99876914282060
C           -1.37839341249046        0.82526919138568       -0.69085412627122
C           -1.83073220724135       -0.53163493679972       -0.32870150857955
C           -0.91668178391321       -1.45678696449018        0.13148526740192
C           -1.30031253845820       -2.77678606340864        0.42274626053262
C           -2.59594312943316       -3.16794021210462        0.26305074969040
C           -3.58536434715443       -2.24558920817454       -0.13888181218150
C           -4.93593575378058       -2.63546717143294       -0.25021682235925
C           -5.90059887097428       -1.73293727975256       -0.59430807511623
C           -5.54502651547699       -0.39643550331097       -0.82275276830893
C           -4.24068536087964        0.01094929667046       -0.73680686854452
C           -3.21109572986207       -0.89977042619106       -0.41743402058792
N            0.46697538612131       -1.09567326996526        0.31262093579983
C            1.44791510225177       -1.98822408341829       -0.22297452097263
C            2.49625234845799       -2.49582133198187        0.53360087828344
C            3.41924592383003       -3.35565255864781       -0.03882984305986
C            3.29438080433459       -3.73951373052551       -1.36136257347213
C            2.23815690332454       -3.24970042267631       -2.11124973452328
C            1.32572520127478       -2.37565576632133       -1.55186431107933
H            1.31515515332748       -1.97043687202252        4.70235439314560
H            2.54617756419035       -1.26684096873583        3.64581886238351
H            1.58187845951524       -0.22083362614780        4.71843036109874
H           -1.53962978259654       -1.06881922772386        2.75380546298742
H           -0.89863459157770       -2.17044546889552        3.97867439590413
H           -1.02401576206448       -0.43470917792971        4.33600877179185
H            1.43808958535068        1.42167387666202       -2.26588610016417
H            1.91182080469953        0.23162396672302       -4.36394534647150
H            4.07130897953343       -0.95382815892512       -4.64173716845552
H            5.74536916718745       -0.87821045707902       -2.85234191238026
H            1.25366999377960        1.89969536042926        3.57451362434271
H            0.56373069464385        3.22794321286586        5.50837542253535
H           -1.75887984292798        4.02431832688945        5.72155124724430
H           -3.40513636590719        3.45193275488151        3.97246120944995
H           -2.73881839253481        2.09386711208906        2.04167497052255
H            0.07017142926300        3.54687607079588        0.72711375028436
H           -0.49510735488664        4.53566670439838       -1.43537475626975
H           -1.31409126885152        4.29730917737489       -3.71756580779510
H           -2.25425108082190        2.91389420116458       -5.51323353597619
H           -2.72257924886937        0.52043732489465       -5.09876308207318
H           -2.33371887554497       -0.46678160554797       -2.91472284312076
H           -0.55621081520301       -3.48019727050979        0.76248526276456
H           -2.88286061254276       -4.18719877475247        0.46629533719385
H           -5.19718315202234       -3.66292772434479       -0.04991018189844
H           -6.93091238776811       -2.04389627578618       -0.67691260037017
H           -6.31465648187602        0.31995156544032       -1.06598506223406
H           -4.00717998058157        1.05053516346256       -0.90793856013135
H            2.59405468691978       -2.24620917930489        1.58093020099806
H            4.23040343001365       -3.73955197236000        0.55944067965968
H            4.00314081037681       -4.42516088365273       -1.79939432962006
H            2.12067613667930       -3.55259672490519       -3.13962828863047
H            0.50426117011347       -2.00200138288043       -2.14276259298648
82
 energy: -135.833095436404 gnorm: 0.015206792256 xtb: 6.7.1 (edcfbbe)
C            1.56738975677050       -1.09002724967170        4.08475282211833
N            0.54804320420219       -1.00373123617242        3.04665019368064
C           -0.81109089542137       -1.15940606231991        3.55292846545234
P            0.75187460004248       -0.12960501840991        1.64113686891392
S            2.79101041683528        0.49802804482603        1.61372273658198
S            2.81041540897783        1.85037224559749        0.08698382462739
C            3.29068172077358        0.91482496232586       -1.36689018985409
C            2.35633048807806        0.88728057304683       -2.38999874018457
C            2.63443759024123        0.22756741467687       -3.57291219011034
C            3.84525494672124       -0.42449240991297       -3.72886748206511
C            4.78817917592454       -0.38512610122432       -2.71752362447486
C            4.53098989282815        0.30121417562130       -1.53847781418528
C            5.61837381856783        0.33828864791607       -0.49249502045345
F            5.74230259633755        1.52962530617277        0.10057831729648
F            6.81192177225045        0.03826278607845       -1.00441108474725
F            5.39472551196916       -0.55492527394631        0.49240889989564
N           -0.38692416967012        1.06658966758305        1.52937564450722
C           -0.71417929594034        1.86846474233242        2.66681149360360
C            0.22101646760848        2.19000498688149        3.63904097063137
C           -0.15678744773572        2.95402596636365        4.73173904883841
C           -1.45814306550043        3.40825085841066        4.85468269250888
C           -2.38597028618190        3.09532036904030        3.87407054592762
C           -2.02048175516142        2.32679278386027        2.78513671845073
C           -0.71835444225509        1.60184871419664        0.23902791378259
C           -0.39741492898696        2.94605007185500       -0.02396882806116
C           -0.70285035153887        3.49674618799472       -1.23133261116002
C           -1.28505294725028        2.71544539086316       -2.25506353280672
C           -1.54014182958764        3.25394406811896       -3.53365970456287
C           -2.06186020948407        2.47709922480798       -4.52780433197981
C           -2.33777726673185        1.12235025920835       -4.28220616285724
C           -2.12246845236145        0.57449144860797       -3.04893544739352
C           -1.60862414528662        1.35556130211638       -1.99198810958787
C           -1.37298496829454        0.82754497450363       -0.68928938860265
C           -1.82344514152049       -0.53467738499840       -0.32986697706406
C           -0.90958001890781       -1.45335706628911        0.12686574287069
C           -1.28417710014309       -2.77716774103714        0.41982767981015
C           -2.57954956343013       -3.16856827467528        0.26403713044160
C           -3.57096923788549       -2.24603117344873       -0.13824397531625
C           -4.92360913483430       -2.63074606553676       -0.24948887635299
C           -5.88291981221142       -1.72281257210755       -0.59402288894251
C           -5.52377485229573       -0.38542817178883       -0.82541496769676
C           -4.22017354770471        0.01692131933183       -0.74277764688914
C           -3.19898139300901       -0.90169306759290       -0.41889958164757
N            0.46913360231473       -1.07841298376413        0.30408367969395
C            1.44250160775446       -1.97215078458408       -0.23062436116017
C            2.48131827490822       -2.48115037945193        0.53457862801893
C            3.40711209260791       -3.33689256519234       -0.03614741099665
C            3.28600267447711       -3.71589750091071       -1.36115391324106
C            2.23238855373252       -3.22697819793447       -2.11635834030067
C            1.31780375514279       -2.35285142325693       -1.56076978861391
H            1.34348110145557       -1.97040204835181        4.68867802908964
H            2.55271066589876       -1.21730659529807        3.63582535375014
H            1.57790247743008       -0.21463362166177        4.73830854445663
H           -1.52884648309985       -1.05616516927902        2.73966793092468
H           -0.90636554388225       -2.16200161856649        3.97186446850585
H           -1.04047905532548       -0.42802119529615        4.33208555741408
H            1.41749550561089        1.40098319641526       -2.25259284776736
H            1.90491087473736        0.22694912920535       -4.36644937776754
H            4.06849460153345       -0.95142083855915       -4.64194064257971
H            5.74216269829885       -0.87094101199995       -2.84783846701178
H            1.25196614344317        1.87522235696940        3.53732196816418
H            0.57459851464249        3.20596652142099        5.48378999032562
H           -1.74654439137545        4.00795375681762        5.70291065313227
H           -3.40161064839512        3.44780689520330        3.95818979059683
H           -2.74264864079814        2.08173053462994        2.02202842623401
H            0.08082713587552        3.53277171897026        0.74525665093839
H           -0.48310587705013        4.53327154338406       -1.43075590200842
H           -1.30587007844631        4.29279790545128       -3.70806916488592
H           -2.25477150659014        2.89645651372181       -5.50271739029332
H           -2.72504743257245        0.51068923903199       -5.08230733585118
H           -2.33966797384784       -0.46976912546651       -2.88244343657048
H           -0.53027442452251       -3.47205923210718        0.75659847776906
H           -2.87227643792903       -4.18639952645837        0.46781346165408
H           -5.18231184998448       -3.65890750879526       -0.04777489970864
H           -6.91505070479904       -2.02495274000826       -0.67814227261250
H           -6.29314348450808        0.33064823767562       -1.06934862320423
H           -3.97104557371968        1.05221128231785       -0.91954833799609
H            2.56157112180247       -2.23280477432146        1.58332791881575
H            4.21495513181809       -3.72095272840904        0.56598763025925
H            3.99522778356654       -4.40116848153544       -1.79660936246470
H            2.11688746086210       -3.53253875803343       -3.14412799151064
H            0.49494722013484       -1.97580364517880       -2.14783782614223
82
 energy: -135.834332709960 gnorm: 0.011268672227 xtb: 6.7.1 (edcfbbe)
C            1.56968060567947       -1.07261553329386        4.09344844261173
N            0.54729057932079       -0.98703070460487        3.06057862500247
C           -0.81571660678890       -1.15321846458733        3.55324760630887
P            0.75609772770182       -0.13481727561131        1.64778092749408
S            2.78326079827959        0.50125374942837        1.60782819616776
S            2.79075745006607        1.85145392491196        0.08114839762039
C            3.26160195616866        0.89274738588164       -1.35860461017247
C            2.32892047675870        0.86430057627329       -2.38434044886909
C            2.61704718457103        0.21398270319324       -3.57088053199267
C            3.83297191361233       -0.42857684895371       -3.72728803197649
C            4.77323954041184       -0.39022648836044       -2.71243697005520
C            4.50581986628981        0.28746198435627       -1.52902302585669
C            5.58702620634302        0.32892527342427       -0.47540483561517
F            5.69645032366989        1.51984113787931        0.12186715471574
F            6.78587865081434        0.03766617529553       -0.97639937763084
F            5.35846866794607       -0.56964301026897        0.50601238682120
N           -0.38453686747655        1.05078793258993        1.52493924800792
C           -0.71774925931403        1.85248896846945        2.65549843265549
C            0.22326345146335        2.17006552834891        3.62137092293757
C           -0.14933685690720        2.93404272306501        4.71497443007518
C           -1.45042987975448        3.39041359440903        4.83707766395772
C           -2.38394136562197        3.08319066701992        3.85916074520040
C           -2.02431624126674        2.31254525083782        2.76925165505146
C           -0.70790491905336        1.59590843599978        0.24011396519232
C           -0.38371268824827        2.94136928768091       -0.01664573739492
C           -0.68775354402055        3.49324158336789       -1.22504864734710
C           -1.27317620121682        2.71328308438336       -2.24826643696223
C           -1.53094515964183        3.24889120123313       -3.52751913080234
C           -2.05753229715788        2.46822001736720       -4.51780229160737
C           -2.33887861909517        1.11454137710014       -4.27173014106316
C           -2.12148246377457        0.56985449688282       -3.03753482661117
C           -1.60054930185648        1.35606139348784       -1.98781067377535
C           -1.36322164576173        0.82557939525922       -0.68948479335615
C           -1.81452283292555       -0.53382201187531       -0.32949994846944
C           -0.89966188586322       -1.45010829300375        0.12650550436094
C           -1.26790390910327       -2.77672095886425        0.41787767739410
C           -2.56462332533596       -3.16779418383922        0.26434831121152
C           -3.55612993785159       -2.24452972201285       -0.13665907940098
C           -4.91004685446721       -2.62466449984589       -0.24815802196874
C           -5.86556552786447       -1.71140408028102       -0.59403887377315
C           -5.50572377965136       -0.37477366805580       -0.82955083495058
C           -4.20073184733385        0.02275689300216       -0.74761679017184
C           -3.18651908887741       -0.90221158749581       -0.41947082656943
N            0.47435356080376       -1.06314650411885        0.30251054536584
C            1.44074762716377       -1.95587412719850       -0.23685300258333
C            2.46931028068491       -2.47311884699564        0.53467225212502
C            3.39906169995089       -3.32308250828398       -0.03701482199209
C            3.28183393458768       -3.69010027113266       -1.36627116385875
C            2.23186150857172       -3.19904748553599       -2.12595960096652
C            1.31621539383281       -2.32490847290223       -1.57106646654650
H            1.37788806035601       -1.97511232796315        4.67758252587302