82
 energy: -135.837474892383 gnorm: 0.000047512020 xtb: 6.7.1 (edcfbbe)
C            1.63326287617098       -0.82572077280680        4.21702202281652
N            0.63662668304364       -0.86589293803234        3.16100279135288
C           -0.68443809338239       -1.30002901790798        3.59138537975105
P            0.75419521790267       -0.07572860354990        1.71630372211013
S            2.73679250516265        0.65742032196614        1.56999288194346
S            2.56448620500497        1.80006306959291       -0.11474536922448
C            3.03200835788750        0.75843442347334       -1.49040765590363
C            2.10897624844951        0.71906633086931       -2.52719412814244
C            2.39407631234777        0.03336318842004       -3.69329336182441
C            3.59709485876171       -0.63969225928883       -3.81888196185109
C            4.52034504148279       -0.60520714058748       -2.78868561128027
C            4.25916575169120        0.11088973592311       -1.62613292132387
C            5.33089428711252        0.14860660744428       -0.56565148922792
F            5.44380011267143        1.33944968959328        0.03579521118057
F            6.53476346000198       -0.14385450999373       -1.06060136450894
F            5.10505066658003       -0.75023378020595        0.41747224373096
N           -0.45255926618206        1.04843021187499        1.60325211499831
C           -0.83627449747211        1.79293347757812        2.75743543608676
C            0.09178346491978        2.17754338675071        3.71284762440246
C           -0.32706267720724        2.87376018463208        4.83447174619782
C           -1.66371571401204        3.19769631067562        4.99169092877927
C           -2.58485968885181        2.82857679309842        4.02387858306123
C           -2.17741772381484        2.12259988071409        2.90684714113061
C           -0.72594164003258        1.64233177001612        0.32916940164779
C           -0.41470707922630        2.99960240517890        0.13201613712434
C           -0.62367984095935        3.57543078213727       -1.08614623083854
C           -1.10316698642020        2.81077512401039       -2.17224915904423
C           -1.24180357326537        3.36594841514585       -3.46112774158867
C           -1.67190571555499        2.60080248947630       -4.50935209163424
C           -1.97496137684102        1.24504303650918       -4.31401697033351
C           -1.86487559249549        0.67891139849711       -3.07377318544172
C           -1.44161720354373        1.44617061248837       -1.96765406353814
C           -1.29937597274349        0.88562060105681       -0.66649250786329
C           -1.76302872495554       -0.47894452742358       -0.36808785827615
C           -0.88245629268091       -1.40880305857299        0.13182702919563
C           -1.27362513117041       -2.73911349842928        0.36849874392759
C           -2.55932677682804       -3.12294038694171        0.12434934652221
C           -3.51969591246889       -2.18835569290359       -0.31961450220695
C           -4.86530673505843       -2.55803551508099       -0.52186951255783
C           -5.79268187560803       -1.63387619435976       -0.91471730231130
C           -5.41424102976995       -0.29730876071897       -1.10843021628830
C           -4.11466622091676        0.09135026644003       -0.93285509321221
C           -3.12780046362522       -0.84340920666625       -0.55460128790506
N            0.47936400072350       -1.04109231839950        0.40056171200794
C            1.47503500266891       -1.91227976454787       -0.12481957474809
C            2.48678025435383       -2.42629158979435        0.67160054781231
C            3.44720882088588       -3.25346558325250        0.11500376335107
C            3.38622420623302       -3.58490911121339       -1.22697415554736
C            2.35760225072946       -3.09231446522112       -2.01411617267478
C            1.40361631195785       -2.25352077213094       -1.47016108206216
H            1.77335804504866       -1.83332693112650        4.61274181822883
H            2.58390627811139       -0.47125669040990        3.82088253868614
H            1.31787876200764       -0.17069389863498        5.03273295391753
H           -1.37015637801053       -1.29938564674776        2.74428062026120
H           -0.61743804870899       -2.31476096074666        3.98706704508621
H           -1.08311053542246       -0.64422664673731        4.37002728552249
H            1.17329314067760        1.24420215478772       -2.41222818699702
H            1.67288828470800        0.02469782287434       -4.49552965255065
H            3.82737684249167       -1.18366063194925       -4.72087667074658
H            5.46527497983698       -1.11558529932558       -2.89060153504847
H            1.14096512304373        1.95775096299024        3.56347217337304
H            0.39639458697624        3.17300876641250        5.57687211794513
H           -1.98652596781914        3.74500954731889        5.86297895373923
H           -3.62549365896307        3.08744462195210        4.13980135086004
H           -2.88621428774338        1.82452670933298        2.14885944761870
H           -0.00978393533318        3.56800948374120        0.95552537770037
H           -0.39732035991561        4.61863362728619       -1.24179180700108
H           -0.99269478714883        4.40668909767722       -3.60333227919265
H           -1.77488919386196        3.03185311703356       -5.49306473919568
H           -2.29763457288134        0.64738356547069       -5.15281676785394
H           -2.09501086386724       -0.36628494014111       -2.93222751165391
H           -0.53831951059404       -3.44066181443692        0.73326107875473
H           -2.86337176482793       -4.14513024485947        0.28896560657799
H           -5.14845879735014       -3.58593412796391       -0.35181765822115
H           -6.82091446685596       -1.92284435308408       -1.06726082495886
H           -6.15924852754172        0.42870129443390       -1.39567501877401
H           -3.83740661563853        1.12452996445567       -1.07611565857995
H            2.51334758727560       -2.19361701706022        1.72718235748241
H            4.23686326525242       -3.64186187302809        0.73770179480741
H            4.13054015031025       -4.23648501502669       -1.65638229270898
H            2.29480504375401       -3.36215998542280       -3.05668407486878
H            0.59913909134678       -1.86436770464636       -2.07572178008869
