      -----------------------------------------------------------      
     |                   =====================                   |     
     |                           x T B                           |     
     |                   =====================                   |     
     |                         S. Grimme                         |     
     |          Mulliken Center for Theoretical Chemistry        |     
     |                    University of Bonn                     |     
      -----------------------------------------------------------      

   * xtb version 6.7.1 (edcfbbe) compiled by 'conda@3ef47c1a292c' on 2024-11-25

   xtb is free software: you can redistribute it and/or modify it under
   the terms of the GNU Lesser General Public License as published by
   the Free Software Foundation, either version 3 of the License, or
   (at your option) any later version.
   
   xtb is distributed in the hope that it will be useful,
   but WITHOUT ANY WARRANTY; without even the implied warranty of
   MERCHANTABILITY or FITNESS FOR A PARTICULAR PURPOSE.  See the
   GNU Lesser General Public License for more details.
   
   Cite this work as:
   * C. Bannwarth, E. Caldeweyher, S. Ehlert, A. Hansen, P. Pracht,
     J. Seibert, S. Spicher, S. Grimme, WIREs Comput. Mol. Sci., 2020, 11,
     e01493. DOI: 10.1002/wcms.1493
   
   for GFN2-xTB:
   * C. Bannwarth, S. Ehlert and S. Grimme., J. Chem. Theory Comput., 2019,
     15, 1652-1671. DOI: 10.1021/acs.jctc.8b01176
   for GFN1-xTB:
   * S. Grimme, C. Bannwarth, P. Shushkov, J. Chem. Theory Comput., 2017,
     13, 1989-2009. DOI: 10.1021/acs.jctc.7b00118
   for GFN0-xTB:
   * P. Pracht, E. Caldeweyher, S. Ehlert, S. Grimme, ChemRxiv, 2019, preprint.
     DOI: 10.26434/chemrxiv.8326202.v1
   for GFN-FF:
   * S. Spicher and S. Grimme, Angew. Chem. Int. Ed., 2020, 59, 15665-15673.
     DOI: 10.1002/anie.202004239
   
   for ALPB and GBSA implicit solvation:
   * S. Ehlert, M. Stahn, S. Spicher, S. Grimme, J. Chem. Theory Comput.,
     2021, 17, 4250-4261. DOI: 10.1021/acs.jctc.1c00471
   
   for ddCOSMO and CPCM-X implicit solvation:
   * M. Stahn, S. Ehlert, S. Grimme, J. Phys. Chem. A,
     2023, XX, XXXX-XXXX. DOI: 10.1021/acs.jpca.3c04382
   
   for DFT-D4:
   * E. Caldeweyher, C. Bannwarth and S. Grimme, J. Chem. Phys., 2017,
     147, 034112. DOI: 10.1063/1.4993215
   * E. Caldeweyher, S. Ehlert, A. Hansen, H. Neugebauer, S. Spicher,
     C. Bannwarth and S. Grimme, J. Chem. Phys., 2019, 150, 154122.
     DOI: 10.1063/1.5090222
   * E. Caldeweyher, J.-M. Mewes, S. Ehlert and S. Grimme, Phys. Chem. Chem. Phys.
     2020, 22, 8499-8512. DOI: 10.1039/D0CP00502A
   
   for sTDA-xTB:
   * S. Grimme and C. Bannwarth, J. Chem. Phys., 2016, 145, 054103.
     DOI: 10.1063/1.4959605
   
   in the mass-spec context:
   * V. Asgeirsson, C. Bauer and S. Grimme, Chem. Sci., 2017, 8, 4879.
     DOI: 10.1039/c7sc00601b
   * J. Koopman and S. Grimme, ACS Omega 2019, 4, 12, 15120-15133.
     DOI: 10.1021/acsomega.9b02011
   
   for metadynamics refer to:
   * S. Grimme, J. Chem. Theory Comput., 2019, 155, 2847-2862
     DOI: 10.1021/acs.jctc.9b00143
   
   for SPH calculations refer to:
   * S. Spicher and S. Grimme, J. Chem. Theory Comput., 2021, 17, 1701-1714
     DOI: 10.1021/acs.jctc.0c01306
   
   for ONIOM refer to:
   * C. Plett, A. Katbashev, S. Ehlert, S. Grimme, M. Bursch,
     Phys. Chem. Chem. Phys., 2023, 25, 17860-17868. DOI: 10.1039/D3CP02178E
   
   for DIPRO refer to:
   * J. Kohn, N. Gildemeister, S. Grimme, D. Fazzi, A. Hansen,
     J. Chem. Phys., 2023, just accepted.
   
   for PTB refer to:
   * S. Grimme, M. Mueller, A. Hansen, J. Chem. Phys., 2023, 158, 124111.
     DOI: 10.1063/5.0137838
   
   with help from (in alphabetical order)
   P. Atkinson, C. Bannwarth, F. Bohle, G. Brandenburg, E. Caldeweyher
   M. Checinski, S. Dohm, S. Ehlert, S. Ehrlich, I. Gerasimov, C. Hölzer
   A. Katbashev, J. Kohn, J. Koopman, C. Lavigne, S. Lehtola, F. März, M. Müller,
   F. Musil, H. Neugebauer, J. Pisarek, C. Plett, P. Pracht, F. Pultar,
   J. Seibert, P. Shushkov, S. Spicher, M. Stahn, M. Steiner, T. Strunk,
   J. Stückrath, T. Rose, and J. Unsleber
   
 * started run on 2024/12/16 at 18:27:06.939     
   ID    Z sym.   atoms
    1    6 C      1-12, 14-25, 29-34, 36-56, 58
    2    7 N      13, 35, 57
    3   15 P      26
    4   16 S      27, 28
    5    1 H      59-103

           -------------------------------------------------
          |                Calculation Setup                |
           -------------------------------------------------

          program call               : xtb --gfn2 --opt extreme -P 8 --charge 1 molecule.xyz
          hostname                   : node20
          coordinate file            : molecule.xyz
          omp threads                :                     8


           -------------------------------------------------
          |                 G F N 2 - x T B                 |
           -------------------------------------------------

        Reference                      10.1021/acs.jctc.8b01176
      * Hamiltonian:
        H0-scaling (s, p, d)           1.850000    2.230000    2.230000
        zeta-weighting                 0.500000
      * Dispersion:
        s8                             2.700000
        a1                             0.520000
        a2                             5.000000
        s9                             5.000000
      * Repulsion:
        kExp                           1.500000    1.000000
        rExp                           1.000000
      * Coulomb:
        alpha                          2.000000
        third order                    shell-resolved
        anisotropic                    true
        a3                             3.000000
        a5                             4.000000
        cn-shift                       1.200000
        cn-exp                         4.000000
        max-rad                        5.000000


          ...................................................
          :                      SETUP                      :
          :.................................................:
          :  # basis functions                 295          :
          :  # atomic orbitals                 292          :
          :  # shells                          164          :
          :  # electrons                       284          :
          :  max. iterations                   250          :
          :  Hamiltonian                  GFN2-xTB          :
          :  restarted?                      false          :
          :  GBSA solvation                  false          :
          :  PC potential                    false          :
          :  electronic temp.          300.0000000     K    :
          :  accuracy                    1.0000000          :
          :  -> integral cutoff          0.2500000E+02      :
          :  -> integral neglect         0.1000000E-07      :
          :  -> SCF convergence          0.1000000E-05 Eh   :
          :  -> wf. convergence          0.1000000E-03 e    :
          :  Broyden damping             0.4000000          :
          :  net charge                          1          :
          :  unpaired electrons                  0          :
          ...................................................

 iter      E             dE          RMSdq      gap      omega  full diag
   1   -154.1007199 -0.154101E+03  0.465E+00    1.68       0.0  T
   2   -154.2590314 -0.158312E+00  0.282E+00    2.17       1.0  T
   3   -154.1985026  0.605288E-01  0.134E+00    2.04       1.0  T
   4   -154.2641286 -0.656260E-01  0.603E-01    1.74       1.0  T
   5   -154.2908285 -0.266999E-01  0.248E-01    1.85       1.0  T
   6   -154.2929940 -0.216553E-02  0.128E-01    1.85       1.0  T
   7   -154.2945312 -0.153723E-02  0.434E-02    1.86       1.0  T
   8   -154.2945653 -0.341190E-04  0.251E-02    1.87       1.0  T
   9   -154.2945900 -0.246234E-04  0.127E-02    1.87       1.0  T
  10   -154.2945963 -0.629684E-05  0.627E-03    1.86       1.6  T
  11   -154.2945972 -0.925587E-06  0.308E-03    1.86       3.2  T
  12   -154.2945975 -0.280194E-06  0.183E-03    1.86       5.4  T
  13   -154.2945975 -0.294684E-07  0.114E-03    1.86       8.6  T
  14   -154.2945975 -0.323001E-07  0.578E-04    1.86      17.1  T
  15   -154.2945975 -0.847842E-08  0.336E-04    1.86      29.3  T

   *** convergence criteria satisfied after 15 iterations ***

         #    Occupation            Energy/Eh            Energy/eV
      -------------------------------------------------------------
         1        2.0000           -0.8561843             -23.2980
       ...           ...                  ...                  ...
       136        2.0000           -0.4810976             -13.0913
       137        2.0000           -0.4792023             -13.0398
       138        2.0000           -0.4776079             -12.9964
       139        2.0000           -0.4656447             -12.6708
       140        2.0000           -0.4563878             -12.4189
       141        2.0000           -0.4522856             -12.3073
       142        2.0000           -0.4510257             -12.2730 (HOMO)
       143                         -0.3825160             -10.4088 (LUMO)
       144                         -0.3688486             -10.0369
       145                         -0.3589489              -9.7675
       146                         -0.3490343              -9.4977
       147                         -0.3468898              -9.4394
       ...                                ...                  ...
       292                          1.0833696              29.4800
      -------------------------------------------------------------
                  HL-Gap            0.0685097 Eh            1.8642 eV
             Fermi-level           -0.4167708 Eh          -11.3409 eV

 SCC (total)                   0 d,  0 h,  0 min,  2.606 sec
 SCC setup                      ...        0 min,  0.001 sec (  0.021%)
 Dispersion                     ...        0 min,  0.004 sec (  0.148%)
 classical contributions        ...        0 min,  0.000 sec (  0.007%)
 integral evaluation            ...        0 min,  0.012 sec (  0.479%)
 iterations                     ...        0 min,  2.428 sec ( 93.170%)
 molecular gradient             ...        0 min,  0.140 sec (  5.362%)
 printout                       ...        0 min,  0.021 sec (  0.811%)

         :::::::::::::::::::::::::::::::::::::::::::::::::::::
         ::                     SUMMARY                     ::
         :::::::::::::::::::::::::::::::::::::::::::::::::::::
         :: total energy            -151.774832363569 Eh    ::
         :: gradient norm              0.165374707880 Eh/a0 ::
         :: HOMO-LUMO gap              1.864244574363 eV    ::
         ::.................................................::
         :: SCC energy              -154.285459676176 Eh    ::
         :: -> isotropic ES            0.074180126356 Eh    ::
         :: -> anisotropic ES          0.005590361699 Eh    ::
         :: -> anisotropic XC          0.096369233288 Eh    ::
         :: -> dispersion             -0.172266970853 Eh    ::
         :: repulsion energy           2.510627312607 Eh    ::
         :: add. restraining           0.000000000000 Eh    ::
         :: total charge               1.000000000000 e     ::
         :::::::::::::::::::::::::::::::::::::::::::::::::::::

      ----------------------------------------------------------- 
     |                   =====================                   |
     |                        A N C O P T                        |
     |                   =====================                   |
     |               Approximate Normal Coordinate               |
     |                Rational Function Optimizer                |
      ----------------------------------------------------------- 
      ----------------------------------------------------------- 
     |                   =====================                   |
     |                        A N C O P T                        |
     |                   =====================                   |
     |               Approximate Normal Coordinate               |
     |                Rational Function Optimizer                |
      ----------------------------------------------------------- 

          ...................................................
          :                      SETUP                      :
          :.................................................:
          :   optimization level           extreme          :
          :   max. optcycles                  2060          :
          :   ANC micro-cycles                  20          :
          :   degrees of freedom               303          :
          :.................................................:
          :   RF solver                   davidson          :
          :   write xtbopt.log                true          :
          :   linear?                        false          :
          :   energy convergence         0.5000000E-07 Eh   :
          :   grad. convergence          0.5000000E-04 Eh/α :
          :   maxmium RF displ.          1.0000000          :
          :   Hlow (freq-cutoff)         0.1000000E-01      :
          :   Hmax (freq-cutoff)         5.0000000          :
          :   S6 in model hess.         20.0000000          :
          ...................................................

generating ANC from exact Hessian ...
Using Lindh-Hessian (1995)
 Shifting diagonal of input Hessian by    9.9596155403650806E-003
 Lowest  eigenvalues of input Hessian
    0.000000    0.000000    0.000000    0.000000    0.000000    0.000000
    0.010000    0.010078    0.010168    0.010215    0.010236    0.010280
    0.010324    0.010382    0.010516    0.010611    0.010703    0.010840
 Highest eigenvalues
    1.995778    2.029436    2.049768    2.049903    2.070862    2.075770


........................................................................
.............................. CYCLE    1 ..............................
........................................................................

 iter      E             dE          RMSdq      gap      omega  full diag
   1   -154.2945975 -0.154295E+03  0.146E-04    1.86       0.0  T
   2   -154.2945975 -0.188066E-09  0.102E-04    1.86      97.0  T
   3   -154.2945975 -0.345267E-09  0.711E-05    1.86     138.6  T
     SCC iter.                  ...        0 min,  0.292 sec
     gradient                   ...        0 min,  0.129 sec
 * total energy  :  -151.7748324 Eh     change       -0.3609955E-08 Eh
   gradient norm :     0.1653767 Eh/α   predicted     0.0000000E+00 (-100.00%)
   displ. norm   :     0.4079896 α      lambda       -0.3538599E-01
   maximum displ.:     0.1317668 α      in ANC's #46, #64, #186, ...

........................................................................
.............................. CYCLE    2 ..............................
........................................................................

 iter      E             dE          RMSdq      gap      omega  full diag
   1   -154.3916588 -0.154392E+03  0.233E-01    1.92       0.0  T
   2   -154.3918465 -0.187762E-03  0.127E-01    1.99       1.0  T
   3   -154.3915648  0.281750E-03  0.610E-02    2.03       1.0  T
   4   -154.3919034 -0.338664E-03  0.236E-02    2.03       1.0  T
   5   -154.3919327 -0.292810E-04  0.101E-02    2.03       1.0  T
   6   -154.3919362 -0.352650E-05  0.396E-03    2.03       2.5  T
   7   -154.3919366 -0.328106E-06  0.268E-03    2.03       3.7  T
   8   -154.3919369 -0.366936E-06  0.154E-03    2.03       6.4  T
   9   -154.3919370 -0.252659E-07  0.914E-04    2.03      10.8  T
  10   -154.3919370 -0.249192E-07  0.515E-04    2.03      19.1  T
     SCC iter.                  ...        0 min,  1.737 sec
     gradient                   ...        0 min,  0.124 sec
 * total energy  :  -151.8000991 Eh     change       -0.2526674E-01 Eh
   gradient norm :     0.0706680 Eh/α   predicted    -0.2067426E-01 ( -18.18%)
   displ. norm   :     0.4597157 α      lambda       -0.1388295E-01
   maximum displ.:     0.1583475 α      in ANC's #46, #21, #25, ...

........................................................................
.............................. CYCLE    3 ..............................
........................................................................

 iter      E             dE          RMSdq      gap      omega  full diag
   1   -154.4539629 -0.154454E+03  0.175E-01    2.14       0.0  T
   2   -154.4540360 -0.731367E-04  0.968E-02    2.17       1.0  T
   3   -154.4538729  0.163066E-03  0.471E-02    2.19       1.0  T
   4   -154.4540717 -0.198793E-03  0.159E-02    2.20       1.0  T
   5   -154.4540858 -0.140399E-04  0.666E-03    2.20       1.5  T
   6   -154.4540871 -0.135763E-05  0.278E-03    2.19       3.5  T
   7   -154.4540872 -0.104412E-06  0.193E-03    2.19       5.1  T
   8   -154.4540873 -0.951281E-07  0.117E-03    2.19       8.4  T
   9   -154.4540874 -0.322800E-07  0.662E-04    2.19      14.9  T
  10   -154.4540874 -0.766377E-08  0.358E-04    2.19      27.5  T
     SCC iter.                  ...        0 min,  1.657 sec
     gradient                   ...        0 min,  0.127 sec
 * total energy  :  -151.8088845 Eh     change       -0.8785368E-02 Eh
   gradient norm :     0.0164135 Eh/α   predicted    -0.8408482E-02 (  -4.29%)
   displ. norm   :     0.4806699 α      lambda       -0.4220430E-02
   maximum displ.:     0.1911833 α      in ANC's #21, #19, #25, ...

........................................................................
.............................. CYCLE    4 ..............................
........................................................................

 iter      E             dE          RMSdq      gap      omega  full diag
   1   -154.4649461 -0.154465E+03  0.118E-01    2.25       0.0  T
   2   -154.4649719 -0.258625E-04  0.623E-02    2.25       1.0  T
   3   -154.4649439  0.280747E-04  0.220E-02    2.25       1.0  T
   4   -154.4649719 -0.280312E-04  0.121E-02    2.26       1.0  T
   5   -154.4649810 -0.913657E-05  0.388E-03    2.26       2.5  T
   6   -154.4649816 -0.575802E-06  0.149E-03    2.26       6.6  T
   7   -154.4649817 -0.118189E-06  0.636E-04    2.26      15.5  T
   8   -154.4649818 -0.246608E-07  0.335E-04    2.26      29.4  T
     SCC iter.                  ...        0 min,  0.995 sec
     gradient                   ...        0 min,  0.129 sec
 * total energy  :  -151.8121598 Eh     change       -0.3275316E-02 Eh
   gradient norm :     0.0163950 Eh/α   predicted    -0.2597790E-02 ( -20.69%)
   displ. norm   :     0.5934183 α      lambda       -0.3394414E-02
   maximum displ.:     0.2882004 α      in ANC's #21, #25, #19, ...

........................................................................
.............................. CYCLE    5 ..............................
........................................................................

 iter      E             dE          RMSdq      gap      omega  full diag
   1   -154.4706733 -0.154471E+03  0.102E-01    2.28       0.0  T
   2   -154.4707015 -0.281615E-04  0.597E-02    2.28       1.0  T
   3   -154.4706855  0.159705E-04  0.209E-02    2.27       1.0  T
   4   -154.4707052 -0.197064E-04  0.832E-03    2.28       1.2  T
   5   -154.4707082 -0.300309E-05  0.416E-03    2.28       2.4  T
   6   -154.4707089 -0.729217E-06  0.173E-03    2.28       5.7  T
   7   -154.4707091 -0.128883E-06  0.869E-04    2.28      11.3  T
   8   -154.4707091 -0.206231E-07  0.513E-04    2.28      19.2  T
     SCC iter.                  ...        0 min,  1.135 sec
     gradient                   ...        0 min,  0.130 sec
 * total energy  :  -151.8146638 Eh     change       -0.2503973E-02 Eh
   gradient norm :     0.0113256 Eh/α   predicted    -0.2294901E-02 (  -8.35%)
   displ. norm   :     0.5381177 α      lambda       -0.1853762E-02
   maximum displ.:     0.2807721 α      in ANC's #21, #19, #17, ...

........................................................................
.............................. CYCLE    6 ..............................
........................................................................

 iter      E             dE          RMSdq      gap      omega  full diag
   1   -154.4737979 -0.154474E+03  0.997E-02    2.26       0.0  T
   2   -154.4738201 -0.222399E-04  0.507E-02    2.26       1.0  T
   3   -154.4738186  0.156649E-05  0.139E-02    2.25       1.0  T
   4   -154.4738204 -0.183743E-05  0.822E-03    2.25       1.2  T
   5   -154.4738228 -0.240141E-05  0.322E-03    2.25       3.1  T
   6   -154.4738234 -0.631996E-06  0.131E-03    2.25       7.5  T
   7   -154.4738235 -0.111669E-06  0.510E-04    2.25      19.3  T
   8   -154.4738235 -0.611465E-08  0.319E-04    2.25      30.9  T
     SCC iter.                  ...        0 min,  1.158 sec
     gradient                   ...        0 min,  0.128 sec
 * total energy  :  -151.8159671 Eh     change       -0.1303317E-02 Eh
   gradient norm :     0.0076985 Eh/α   predicted    -0.1195280E-02 (  -8.29%)
   displ. norm   :     0.4464127 α      lambda       -0.1005063E-02
   maximum displ.:     0.2473630 α      in ANC's #21, #11, #17, ...

........................................................................
.............................. CYCLE    7 ..............................
........................................................................

 iter      E             dE          RMSdq      gap      omega  full diag
   1   -154.4784126 -0.154478E+03  0.654E-02    2.27       0.0  T
   2   -154.4784212 -0.856819E-05  0.379E-02    2.27       1.0  T
   3   -154.4784161  0.501661E-05  0.119E-02    2.27       1.0  T
   4   -154.4784224 -0.628918E-05  0.396E-03    2.27       2.5  T
   5   -154.4784228 -0.370894E-06  0.253E-03    2.27       3.9  T
   6   -154.4784232 -0.384726E-06  0.108E-03    2.27       9.1  T
   7   -154.4784232 -0.402059E-07  0.578E-04    2.27      17.0  T
   8   -154.4784232 -0.635413E-08  0.329E-04    2.27      30.0  T
     SCC iter.                  ...        0 min,  1.242 sec
     gradient                   ...        0 min,  0.131 sec
 * total energy  :  -151.8166512 Eh     change       -0.6841387E-03 Eh
   gradient norm :     0.0069030 Eh/α   predicted    -0.6026876E-03 ( -11.91%)
   displ. norm   :     0.3683181 α      lambda       -0.6018193E-03
   maximum displ.:     0.1828319 α      in ANC's #21, #4, #11, ...

........................................................................
.............................. CYCLE    8 ..............................
........................................................................

 iter      E             dE          RMSdq      gap      omega  full diag
   1   -154.4805807 -0.154481E+03  0.614E-02    2.27       0.0  T
   2   -154.4805858 -0.506642E-05  0.319E-02    2.26       1.0  T
   3   -154.4805842  0.161539E-05  0.845E-03    2.27       1.2  T
   4   -154.4805856 -0.147916E-05  0.457E-03    2.26       2.2  T
   5   -154.4805869 -0.127011E-05  0.139E-03    2.26       7.1  T
   6   -154.4805870 -0.924433E-07  0.663E-04    2.26      14.9  T
   7   -154.4805870 -0.172512E-07  0.404E-04    2.26      24.4  T
     SCC iter.                  ...        0 min,  0.840 sec
     gradient                   ...        0 min,  0.130 sec
 * total energy  :  -151.8170870 Eh     change       -0.4357907E-03 Eh
   gradient norm :     0.0061256 Eh/α   predicted    -0.3417364E-03 ( -21.58%)
   displ. norm   :     0.3656137 α      lambda       -0.4752084E-03
   maximum displ.:     0.1449692 α      in ANC's #4, #21, #10, ...

........................................................................
.............................. CYCLE    9 ..............................
........................................................................

 iter      E             dE          RMSdq      gap      omega  full diag
   1   -154.4819016 -0.154482E+03  0.554E-02    2.28       0.0  T
   2   -154.4819045 -0.288192E-05  0.314E-02    2.27       1.0  T
   3   -154.4819015  0.291939E-05  0.677E-03    2.28       1.5  T
   4   -154.4819048 -0.320765E-05  0.274E-03    2.28       3.6  T
   5   -154.4819052 -0.468983E-06  0.116E-03    2.28       8.5  T
   6   -154.4819053 -0.456187E-07  0.552E-04    2.28      17.8  T
   7   -154.4819053 -0.170583E-07  0.229E-04    2.28      43.1  T
     SCC iter.                  ...        0 min,  0.814 sec
     gradient                   ...        0 min,  0.129 sec
 * total energy  :  -151.8174506 Eh     change       -0.3635541E-03 Eh
   gradient norm :     0.0051731 Eh/α   predicted    -0.2693734E-03 ( -25.91%)
   displ. norm   :     0.3953041 α      lambda       -0.4251797E-03
   maximum displ.:     0.1718109 α      in ANC's #4, #10, #6, ...

........................................................................
.............................. CYCLE   10 ..............................
........................................................................

 iter      E             dE          RMSdq      gap      omega  full diag
   1   -154.4815990 -0.154482E+03  0.585E-02    2.28       0.0  T
   2   -154.4816023 -0.334024E-05  0.331E-02    2.28       1.0  T
   3   -154.4815995  0.283895E-05  0.786E-03    2.29       1.3  T
   4   -154.4816027 -0.325470E-05  0.303E-03    2.28       3.2  T
   5   -154.4816031 -0.383905E-06  0.149E-03    2.28       6.6  T
   6   -154.4816032 -0.114711E-06  0.606E-04    2.28      16.3  T
   7   -154.4816032 -0.158857E-07  0.308E-04    2.28      32.0  T
     SCC iter.                  ...        0 min,  1.083 sec
     gradient                   ...        0 min,  0.131 sec
 * total energy  :  -151.8177888 Eh     change       -0.3382808E-03 Eh
   gradient norm :     0.0051241 Eh/α   predicted    -0.2458221E-03 ( -27.33%)
   displ. norm   :     0.4413782 α      lambda       -0.4161070E-03
   maximum displ.:     0.2033729 α      in ANC's #4, #10, #6, ...

........................................................................
.............................. CYCLE   11 ..............................
........................................................................

 iter      E             dE          RMSdq      gap      omega  full diag
   1   -154.4806795 -0.154481E+03  0.622E-02    2.29       0.0  T
   2   -154.4806819 -0.244719E-05  0.359E-02    2.29       1.0  T
   3   -154.4806784  0.351848E-05  0.764E-03    2.30       1.3  T
   4   -154.4806824 -0.396723E-05  0.264E-03    2.29       3.7  T
   5   -154.4806826 -0.292546E-06  0.124E-03    2.29       7.9  T
   6   -154.4806827 -0.822437E-07  0.537E-04    2.29      18.4  T
   7   -154.4806827 -0.158906E-07  0.238E-04    2.29      41.4  T
     SCC iter.                  ...        0 min,  1.227 sec
     gradient                   ...        0 min,  0.127 sec
 * total energy  :  -151.8181257 Eh     change       -0.3368616E-03 Eh
   gradient norm :     0.0054660 Eh/α   predicted    -0.2485861E-03 ( -26.21%)
   displ. norm   :     0.4731911 α      lambda       -0.3987395E-03
   maximum displ.:     0.2260181 α      in ANC's #4, #6, #10, ...

........................................................................
.............................. CYCLE   12 ..............................
........................................................................

 iter      E             dE          RMSdq      gap      omega  full diag
   1   -154.4801244 -0.154480E+03  0.662E-02    2.30       0.0  T
   2   -154.4801264 -0.198645E-05  0.384E-02    2.31       1.0  T
   3   -154.4801215  0.497687E-05  0.828E-03    2.31       1.2  T
   4   -154.4801270 -0.558950E-05  0.244E-03    2.31       4.0  T
   5   -154.4801273 -0.216830E-06  0.116E-03    2.31       8.5  T
   6   -154.4801274 -0.929379E-07  0.461E-04    2.31      21.4  T
   7   -154.4801274 -0.128037E-07  0.206E-04    2.31      47.8  T
     SCC iter.                  ...        0 min,  1.180 sec
     gradient                   ...        0 min,  0.125 sec
 * total energy  :  -151.8184478 Eh     change       -0.3220927E-03 Eh
   gradient norm :     0.0053026 Eh/α   predicted    -0.2440118E-03 ( -24.24%)
   displ. norm   :     0.4858142 α      lambda       -0.3560288E-03
   maximum displ.:     0.2372316 α      in ANC's #4, #6, #10, ...

........................................................................
.............................. CYCLE   13 ..............................
........................................................................

 iter      E             dE          RMSdq      gap      omega  full diag
   1   -154.4804412 -0.154480E+03  0.665E-02    2.32       0.0  T
   2   -154.4804428 -0.162570E-05  0.389E-02    2.32       1.0  T
   3   -154.4804369  0.593442E-05  0.829E-03    2.32       1.2  T
   4   -154.4804434 -0.655393E-05  0.213E-03    2.32       4.6  T
   5   -154.4804436 -0.220523E-06  0.983E-04    2.32      10.0  T
   6   -154.4804437 -0.677058E-07  0.395E-04    2.32      25.0  T
     SCC iter.                  ...        0 min,  0.887 sec
     gradient                   ...        0 min,  0.132 sec
 * total energy  :  -151.8187343 Eh     change       -0.2865099E-03 Eh
   gradient norm :     0.0047645 Eh/α   predicted    -0.2200305E-03 ( -23.20%)
   displ. norm   :     0.4924704 α      lambda       -0.3073145E-03
   maximum displ.:     0.2418141 α      in ANC's #4, #6, #10, ...

........................................................................
.............................. CYCLE   14 ..............................
........................................................................

 iter      E             dE          RMSdq      gap      omega  full diag
   1   -154.4814111 -0.154481E+03  0.658E-02    2.33       0.0  T
   2   -154.4814127 -0.161139E-05  0.384E-02    2.34       1.0  T
   3   -154.4814062  0.649991E-05  0.844E-03    2.34       1.2  T
   4   -154.4814133 -0.704547E-05  0.241E-03    2.34       4.1  T
   5   -154.4814136 -0.319106E-06  0.100E-03    2.34       9.8  T
   6   -154.4814136 -0.685812E-07  0.408E-04    2.34      24.2  T
   7   -154.4814137 -0.952340E-08  0.194E-04    2.34      50.9  T
     SCC iter.                  ...        0 min,  1.099 sec
     gradient                   ...        0 min,  0.128 sec
 * total energy  :  -151.8189819 Eh     change       -0.2476291E-03 Eh
   gradient norm :     0.0044274 Eh/α   predicted    -0.1909256E-03 ( -22.90%)
   displ. norm   :     0.4949097 α      lambda       -0.2673735E-03
   maximum displ.:     0.2424779 α      in ANC's #4, #6, #10, ...

........................................................................
.............................. CYCLE   15 ..............................
........................................................................

 iter      E             dE          RMSdq      gap      omega  full diag
   1   -154.4826127 -0.154483E+03  0.642E-02    2.35       0.0  T
   2   -154.4826140 -0.132290E-05  0.373E-02    2.35       1.0  T
   3   -154.4826075  0.651862E-05  0.811E-03    2.35       1.2  T
   4   -154.4826146 -0.704400E-05  0.236E-03    2.35       4.2  T
   5   -154.4826149 -0.305122E-06  0.916E-04    2.35      10.8  T
   6   -154.4826149 -0.576250E-07  0.386E-04    2.35      25.5  T
     SCC iter.                  ...        0 min,  0.686 sec
     gradient                   ...        0 min,  0.134 sec
 * total energy  :  -151.8191965 Eh     change       -0.2145907E-03 Eh
   gradient norm :     0.0042563 Eh/α   predicted    -0.1664344E-03 ( -22.44%)
   displ. norm   :     0.4798560 α      lambda       -0.2281737E-03
   maximum displ.:     0.2330888 α      in ANC's #4, #6, #10, ...

........................................................................
.............................. CYCLE   16 ..............................
........................................................................

 iter      E             dE          RMSdq      gap      omega  full diag
   1   -154.4837749 -0.154484E+03  0.614E-02    2.36       0.0  T
   2   -154.4837761 -0.121624E-05  0.355E-02    2.36       1.0  T
   3   -154.4837698  0.632587E-05  0.779E-03    2.37       1.3  T
   4   -154.4837766 -0.677735E-05  0.245E-03    2.36       4.0  T
   5   -154.4837769 -0.333480E-06  0.917E-04    2.36      10.7  T
   6   -154.4837770 -0.679418E-07  0.328E-04    2.36      30.0  T
     SCC iter.                  ...        0 min,  0.832 sec
     gradient                   ...        0 min,  0.124 sec
 * total energy  :  -151.8193771 Eh     change       -0.1806094E-03 Eh
   gradient norm :     0.0038379 Eh/α   predicted    -0.1403598E-03 ( -22.29%)
   displ. norm   :     0.4465272 α      lambda       -0.1847532E-03
   maximum displ.:     0.2135603 α      in ANC's #4, #6, #7, ...

........................................................................
.............................. CYCLE   17 ..............................
........................................................................

 iter      E             dE          RMSdq      gap      omega  full diag
   1   -154.4844930 -0.154484E+03  0.558E-02    2.37       0.0  T
   2   -154.4844940 -0.103025E-05  0.325E-02    2.37       1.0  T
   3   -154.4844879  0.610409E-05  0.734E-03    2.37       1.3  T
   4   -154.4844945 -0.662107E-05  0.192E-03    2.37       5.1  T
   5   -154.4844947 -0.197162E-06  0.847E-04    2.37      11.6  T
   6   -154.4844948 -0.488128E-07  0.297E-04    2.37      33.1  T
     SCC iter.                  ...        0 min,  0.964 sec
     gradient                   ...        0 min,  0.131 sec
 * total energy  :  -151.8195209 Eh     change       -0.1437476E-03 Eh
   gradient norm :     0.0031705 Eh/α   predicted    -0.1107993E-03 ( -22.92%)
   displ. norm   :     0.3987658 α      lambda       -0.1444256E-03
   maximum displ.:     0.1853255 α      in ANC's #4, #6, #7, ...

........................................................................
.............................. CYCLE   18 ..............................
........................................................................

 iter      E             dE          RMSdq      gap      omega  full diag
   1   -154.4849189 -0.154485E+03  0.491E-02    2.38       0.0  T
   2   -154.4849198 -0.889639E-06  0.287E-02    2.38       1.0  T
   3   -154.4849145  0.525657E-05  0.678E-03    2.38       1.5  T
   4   -154.4849203 -0.572746E-05  0.162E-03    2.38       6.1  T
   5   -154.4849204 -0.146210E-06  0.766E-04    2.38      12.9  T
   6   -154.4849204 -0.334387E-07  0.289E-04    2.38      34.0  T
     SCC iter.                  ...        0 min,  0.930 sec
     gradient                   ...        0 min,  0.127 sec
 * total energy  :  -151.8196324 Eh     change       -0.1115035E-03 Eh
   gradient norm :     0.0029118 Eh/α   predicted    -0.8369683E-04 ( -24.94%)
   displ. norm   :     0.3580200 α      lambda       -0.1183436E-03
   maximum displ.:     0.1637514 α      in ANC's #6, #4, #2, ...

........................................................................
.............................. CYCLE   19 ..............................
........................................................................

 iter      E             dE          RMSdq      gap      omega  full diag
   1   -154.4849506 -0.154485E+03  0.440E-02    2.38       0.0  T
   2   -154.4849514 -0.861204E-06  0.254E-02    2.38       1.0  T
   3   -154.4849473  0.411861E-05  0.634E-03    2.38       1.6  T
   4   -154.4849517 -0.443674E-05  0.192E-03    2.38       5.1  T
   5   -154.4849519 -0.200261E-06  0.904E-04    2.38      10.9  T
   6   -154.4849520 -0.584230E-07  0.271E-04    2.38      36.4  T
     SCC iter.                  ...        0 min,  0.641 sec
     gradient                   ...        0 min,  0.133 sec
 * total energy  :  -151.8197241 Eh     change       -0.9167462E-04 Eh
   gradient norm :     0.0030270 Eh/α   predicted    -0.6675832E-04 ( -27.18%)
   displ. norm   :     0.3361542 α      lambda       -0.1058587E-03
   maximum displ.:     0.1505336 α      in ANC's #6, #4, #2, ...

........................................................................
.............................. CYCLE   20 ..............................
........................................................................

 iter      E             dE          RMSdq      gap      omega  full diag
   1   -154.4850626 -0.154485E+03  0.422E-02    2.38       0.0  T
   2   -154.4850637 -0.109148E-05  0.236E-02    2.38       1.0  T
   3   -154.4850607  0.300425E-05  0.622E-03    2.38       1.6  T
   4   -154.4850637 -0.302797E-05  0.267E-03    2.38       3.7  T
   5   -154.4850642 -0.448287E-06  0.110E-03    2.38       9.0  T
   6   -154.4850643 -0.973935E-07  0.306E-04    2.38      32.2  T
   7   -154.4850643 -0.333475E-08  0.165E-04    2.38      59.8  T
     SCC iter.                  ...        0 min,  1.011 sec
     gradient                   ...        0 min,  0.129 sec
 * total energy  :  -151.8198059 Eh     change       -0.8181016E-04 Eh
   gradient norm :     0.0030549 Eh/α   predicted    -0.5891349E-04 ( -27.99%)
   displ. norm   :     0.3207645 α      lambda       -0.9599509E-04
   maximum displ.:     0.1411546 α      in ANC's #6, #4, #2, ...
 * RMSD in coord.:     0.6384891 α      energy gain  -0.4497351E-01 Eh

generating ANC from exact Hessian ...
Using Lindh-Hessian (1995)
 Shifting diagonal of input Hessian by    1.0188262588931636E-002
 Lowest  eigenvalues of input Hessian
    0.010000    0.010103    0.000000    0.000000    0.000000    0.000000
    0.000000    0.000000    0.010248    0.010373    0.010435    0.010534
    0.010588    0.010719    0.010796    0.010866    0.011036    0.011075
 Highest eigenvalues
    2.035725    2.073755    2.103284    2.107803    2.116184    2.127170


........................................................................
.............................. CYCLE   21 ..............................
........................................................................

 iter      E             dE          RMSdq      gap      omega  full diag
   1   -154.4846773 -0.154485E+03  0.415E-02    2.38       0.0  T
   2   -154.4846788 -0.148488E-05  0.224E-02    2.38       1.0  T
   3   -154.4846768  0.198006E-05  0.607E-03    2.38       1.6  T
   4   -154.4846785 -0.168425E-05  0.328E-03    2.38       3.0  T
   5   -154.4846792 -0.749531E-06  0.114E-03    2.38       8.7  T
   6   -154.4846793 -0.105548E-06  0.348E-04    2.38      28.3  T
   7   -154.4846793 -0.548002E-08  0.168E-04    2.38      58.5  T
     SCC iter.                  ...        0 min,  0.849 sec
     gradient                   ...        0 min,  0.125 sec
 * total energy  :  -151.8198796 Eh     change       -0.7369164E-04 Eh
   gradient norm :     0.0025947 Eh/α   predicted     0.0000000E+00 (-100.00%)
   displ. norm   :     0.0453193 α      lambda       -0.3300452E-04
   maximum displ.:     0.0258693 α      in ANC's #4, #12, #39, ...

........................................................................
.............................. CYCLE   22 ..............................
........................................................................

 iter      E             dE          RMSdq      gap      omega  full diag
   1   -154.4853772 -0.154485E+03  0.848E-03    2.38       0.0  T
   2   -154.4853773 -0.867035E-07  0.469E-03    2.38       2.1  T
   3   -154.4853773  0.177268E-07  0.980E-04    2.38      10.1  T
   4   -154.4853773 -0.165608E-07  0.526E-04    2.38      18.7  T
     SCC iter.                  ...        0 min,  0.493 sec
     gradient                   ...        0 min,  0.124 sec
 * total energy  :  -151.8199102 Eh     change       -0.3065902E-04 Eh
   gradient norm :     0.0013989 Eh/α   predicted    -0.1767291E-04 ( -42.36%)
   displ. norm   :     0.2336569 α      lambda       -0.8823798E-04
   maximum displ.:     0.1311055 α      in ANC's #4, #12, #39, ...

........................................................................
.............................. CYCLE   23 ..............................
........................................................................

 iter      E             dE          RMSdq      gap      omega  full diag
   1   -154.4864403 -0.154486E+03  0.412E-02    2.39       0.0  T
   2   -154.4864416 -0.131079E-05  0.232E-02    2.39       1.0  T
   3   -154.4864412  0.436377E-06  0.449E-03    2.39       2.2  T
   4   -154.4864416 -0.451149E-06  0.224E-03    2.39       4.4  T
   5   -154.4864418 -0.194894E-06  0.103E-03    2.39       9.6  T
   6   -154.4864419 -0.932160E-07  0.398E-04    2.39      24.7  T
   7   -154.4864419 -0.374891E-08  0.261E-04    2.39      37.8  T
     SCC iter.                  ...        0 min,  1.088 sec
     gradient                   ...        0 min,  0.135 sec
 * total energy  :  -151.8199732 Eh     change       -0.6297875E-04 Eh
   gradient norm :     0.0032254 Eh/α   predicted    -0.4519086E-04 ( -28.24%)
   displ. norm   :     0.0549302 α      lambda       -0.2668314E-04
   maximum displ.:     0.0319569 α      in ANC's #4, #12, #10, ...

........................................................................
.............................. CYCLE   24 ..............................
........................................................................

 iter      E             dE          RMSdq      gap      omega  full diag
   1   -154.4861965 -0.154486E+03  0.149E-02    2.39       0.0  T
   2   -154.4861970 -0.560018E-06  0.699E-03    2.39       1.4  T
   3   -154.4861970  0.240846E-07  0.212E-03    2.39       4.6  T
   4   -154.4861971 -0.105471E-06  0.116E-03    2.39       8.5  T
   5   -154.4861971 -0.203404E-07  0.533E-04    2.39      18.5  T
   6   -154.4861971 -0.129473E-07  0.237E-04    2.39      41.6  T
     SCC iter.                  ...        0 min,  0.688 sec
     gradient                   ...        0 min,  0.132 sec
 * total energy  :  -151.8199919 Eh     change       -0.1865663E-04 Eh
   gradient norm :     0.0025218 Eh/α   predicted    -0.1338352E-04 ( -28.26%)
   displ. norm   :     0.1107489 α      lambda       -0.4796546E-04
   maximum displ.:     0.0648455 α      in ANC's #4, #10, #6, ...

........................................................................
.............................. CYCLE   25 ..............................
........................................................................

 iter      E             dE          RMSdq      gap      omega  full diag
   1   -154.4855008 -0.154486E+03  0.179E-02    2.39       0.0  T
   2   -154.4855011 -0.273148E-06  0.981E-03    2.39       1.0  T
   3   -154.4855009  0.182513E-06  0.224E-03    2.39       4.4  T
   4   -154.4855011 -0.173105E-06  0.121E-03    2.39       8.2  T
   5   -154.4855012 -0.829570E-07  0.332E-04    2.39      29.7  T
   6   -154.4855012 -0.532549E-08  0.156E-04    2.39      63.1  T
     SCC iter.                  ...        0 min,  0.726 sec
     gradient                   ...        0 min,  0.126 sec
 * total energy  :  -151.8200286 Eh     change       -0.3670985E-04 Eh
   gradient norm :     0.0010892 Eh/α   predicted    -0.2428198E-04 ( -33.85%)
   displ. norm   :     0.2680934 α      lambda       -0.4777612E-04
   maximum displ.:     0.1502466 α      in ANC's #4, #10, #6, ...

........................................................................
.............................. CYCLE   26 ..............................
........................................................................

 iter      E             dE          RMSdq      gap      omega  full diag
   1   -154.4840508 -0.154484E+03  0.445E-02    2.38       0.0  T
   2   -154.4840525 -0.175313E-05  0.236E-02    2.38       1.0  T
   3   -154.4840523  0.265735E-06  0.499E-03    2.38       2.0  T
   4   -154.4840521  0.128631E-06  0.312E-03    2.38       3.2  T
   5   -154.4840529 -0.766211E-06  0.681E-04    2.38      14.5  T
   6   -154.4840529 -0.225688E-07  0.347E-04    2.38      28.4  T
     SCC iter.                  ...        0 min,  0.777 sec
     gradient                   ...        0 min,  0.134 sec
 * total energy  :  -151.8200720 Eh     change       -0.4339712E-04 Eh
   gradient norm :     0.0031086 Eh/α   predicted    -0.2465780E-04 ( -43.18%)
   displ. norm   :     0.1250341 α      lambda       -0.2906410E-04
   maximum displ.:     0.0704972 α      in ANC's #4, #10, #6, ...

........................................................................
.............................. CYCLE   27 ..............................
........................................................................

 iter      E             dE          RMSdq      gap      omega  full diag
   1   -154.4843477 -0.154484E+03  0.163E-02    2.38       0.0  T
   2   -154.4843479 -0.180960E-06  0.918E-03    2.38       1.1  T
   3   -154.4843478  0.100353E-06  0.172E-03    2.38       5.7  T
   4   -154.4843479 -0.672596E-07  0.996E-04    2.38       9.9  T
   5   -154.4843479 -0.736545E-07  0.377E-04    2.38      26.2  T
     SCC iter.                  ...        0 min,  0.677 sec
     gradient                   ...        0 min,  0.131 sec
 * total energy  :  -151.8200970 Eh     change       -0.2500970E-04 Eh
   gradient norm :     0.0025951 Eh/α   predicted    -0.1476094E-04 ( -40.98%)
   displ. norm   :     0.3279374 α      lambda       -0.7565287E-04
   maximum displ.:     0.1779956 α      in ANC's #4, #3, #10, ...

........................................................................
.............................. CYCLE   28 ..............................
........................................................................

 iter      E             dE          RMSdq      gap      omega  full diag
   1   -154.4849644 -0.154485E+03  0.446E-02    2.39       0.0  T
   2   -154.4849659 -0.146724E-05  0.241E-02    2.39       1.0  T
   3   -154.4849654  0.458402E-06  0.490E-03    2.39       2.0  T
   4   -154.4849657 -0.238432E-06  0.288E-03    2.39       3.4  T
   5   -154.4849662 -0.550985E-06  0.816E-04    2.39      12.1  T
   6   -154.4849663 -0.535149E-07  0.325E-04    2.39      30.4  T
     SCC iter.                  ...        0 min,  0.810 sec
     gradient                   ...        0 min,  0.126 sec
 * total energy  :  -151.8201549 Eh     change       -0.5795567E-04 Eh
   gradient norm :     0.0014180 Eh/α   predicted    -0.4189488E-04 ( -27.71%)
   displ. norm   :     0.4977165 α      lambda       -0.5885197E-04
   maximum displ.:     0.2672030 α      in ANC's #4, #3, #6, ...

........................................................................
.............................. CYCLE   29 ..............................
........................................................................

 iter      E             dE          RMSdq      gap      omega  full diag
   1   -154.4850951 -0.154485E+03  0.603E-02    2.39       0.0  T
   2   -154.4850974 -0.230544E-05  0.332E-02    2.39       1.0  T
   3   -154.4850960  0.139487E-05  0.650E-03    2.39       1.5  T
   4   -154.4850968 -0.816669E-06  0.394E-03    2.39       2.5  T
   5   -154.4850980 -0.114301E-05  0.123E-03    2.39       8.0  T
   6   -154.4850981 -0.122764E-06  0.458E-04    2.39      21.5  T
   7   -154.4850981 -0.787634E-08  0.248E-04    2.39      39.7  T
     SCC iter.                  ...        0 min,  1.122 sec
     gradient                   ...        0 min,  0.127 sec
 * total energy  :  -151.8202181 Eh     change       -0.6314326E-04 Eh
   gradient norm :     0.0028967 Eh/α   predicted    -0.3266649E-04 ( -48.27%)
   displ. norm   :     0.2257500 α      lambda       -0.4804971E-04
   maximum displ.:     0.1159802 α      in ANC's #4, #3, #2, ...

........................................................................
.............................. CYCLE   30 ..............................
........................................................................

 iter      E             dE          RMSdq      gap      omega  full diag
   1   -154.4858135 -0.154486E+03  0.243E-02    2.39       0.0  T
   2   -154.4858139 -0.387425E-06  0.134E-02    2.39       1.0  T
   3   -154.4858136  0.328921E-06  0.282E-03    2.39       3.5  T
   4   -154.4858139 -0.282482E-06  0.158E-03    2.39       6.2  T
   5   -154.4858140 -0.154783E-06  0.511E-04    2.39      19.3  T
   6   -154.4858140 -0.177932E-07  0.200E-04    2.39      49.2  T
     SCC iter.                  ...        0 min,  1.032 sec
     gradient                   ...        0 min,  0.135 sec
 * total energy  :  -151.8202614 Eh     change       -0.4327312E-04 Eh
   gradient norm :     0.0026947 Eh/α   predicted    -0.2525164E-04 ( -41.65%)
   displ. norm   :     0.3564489 α      lambda       -0.8802773E-04
   maximum displ.:     0.1782613 α      in ANC's #4, #3, #2, ...

........................................................................
.............................. CYCLE   31 ..............................
........................................................................

 iter      E             dE          RMSdq      gap      omega  full diag
   1   -154.4862595 -0.154486E+03  0.364E-02    2.39       0.0  T
   2   -154.4862604 -0.903411E-06  0.200E-02    2.39       1.0  T
   3   -154.4862595  0.863043E-06  0.433E-03    2.39       2.3  T
   4   -154.4862602 -0.735882E-06  0.242E-03    2.39       4.1  T
   5   -154.4862606 -0.372114E-06  0.874E-04    2.39      11.3  T
   6   -154.4862607 -0.555793E-07  0.298E-04    2.39      33.1  T
     SCC iter.                  ...        0 min,  0.880 sec
     gradient                   ...        0 min,  0.128 sec
 * total energy  :  -151.8203346 Eh     change       -0.7324249E-04 Eh
   gradient norm :     0.0018289 Eh/α   predicted    -0.4960678E-04 ( -32.27%)
   displ. norm   :     0.6656359 α      lambda       -0.8623290E-04
   maximum displ.:     0.3420841 α      in ANC's #4, #3, #2, ...

........................................................................
.............................. CYCLE   32 ..............................
........................................................................

 iter      E             dE          RMSdq      gap      omega  full diag
   1   -154.4845117 -0.154485E+03  0.669E-02    2.40       0.0  T
   2   -154.4845148 -0.311066E-05  0.365E-02    2.40       1.0  T
   3   -154.4845128  0.209947E-05  0.752E-03    2.40       1.3  T
   4   -154.4845143 -0.152645E-05  0.446E-03    2.40       2.2  T
   5   -154.4845156 -0.134250E-05  0.154E-03    2.40       6.4  T
   6   -154.4845158 -0.174848E-06  0.533E-04    2.40      18.5  T
   7   -154.4845158 -0.144954E-07  0.242E-04    2.40      40.7  T
     SCC iter.                  ...        0 min,  1.063 sec
     gradient                   ...        0 min,  0.127 sec
 * total energy  :  -151.8204231 Eh     change       -0.8846035E-04 Eh
   gradient norm :     0.0022568 Eh/α   predicted    -0.5160981E-04 ( -41.66%)
   displ. norm   :     0.2702273 α      lambda       -0.4513815E-04
   maximum displ.:     0.1483900 α      in ANC's #4, #3, #2, ...

........................................................................
.............................. CYCLE   33 ..............................
........................................................................

 iter      E             dE          RMSdq      gap      omega  full diag
   1   -154.4847478 -0.154485E+03  0.254E-02    2.40       0.0  T
   2   -154.4847482 -0.445190E-06  0.138E-02    2.40       1.0  T
   3   -154.4847480  0.198305E-06  0.279E-03    2.40       3.5  T
   4   -154.4847482 -0.133922E-06  0.164E-03    2.40       6.0  T
   5   -154.4847483 -0.171878E-06  0.543E-04    2.40      18.1  T
   6   -154.4847484 -0.236068E-07  0.184E-04    2.40      53.5  T
     SCC iter.                  ...        0 min,  0.804 sec
     gradient                   ...        0 min,  0.141 sec
 * total energy  :  -151.8204640 Eh     change       -0.4099246E-04 Eh
   gradient norm :     0.0020727 Eh/α   predicted    -0.2422140E-04 ( -40.91%)
   displ. norm   :     0.3215314 α      lambda       -0.8188725E-04
   maximum displ.:     0.1735212 α      in ANC's #4, #3, #2, ...

........................................................................
.............................. CYCLE   34 ..............................
........................................................................

 iter      E             dE          RMSdq      gap      omega  full diag
   1   -154.4860687 -0.154486E+03  0.304E-02    2.41       0.0  T
   2   -154.4860694 -0.757334E-06  0.163E-02    2.41       1.0  T
   3   -154.4860690  0.468754E-06  0.372E-03    2.41       2.6  T
   4   -154.4860694 -0.387991E-06  0.207E-03    2.41       4.8  T
   5   -154.4860696 -0.259685E-06  0.783E-04    2.41      12.6  T
   6   -154.4860697 -0.545451E-07  0.214E-04    2.41      46.0  T
     SCC iter.                  ...        0 min,  0.711 sec
     gradient                   ...        0 min,  0.125 sec
 * total energy  :  -151.8205366 Eh     change       -0.7256489E-04 Eh
   gradient norm :     0.0015218 Eh/α   predicted    -0.4517722E-04 ( -37.74%)
   displ. norm   :     0.7566674 α      lambda       -0.1269780E-03
   maximum displ.:     0.4157509 α      in ANC's #4, #2, #3, ...

........................................................................
.............................. CYCLE   35 ..............................
........................................................................

 iter      E             dE          RMSdq      gap      omega  full diag
   1   -154.4846432 -0.154485E+03  0.746E-02    2.42       0.0  T
   2   -154.4846485 -0.532739E-05  0.396E-02    2.42       1.0  T
   3   -154.4846458  0.266492E-05  0.919E-03    2.42       1.1  T
   4   -154.4846476 -0.177391E-05  0.540E-03    2.42       1.8  T
   5   -154.4846496 -0.205585E-05  0.187E-03    2.42       5.3  T
   6   -154.4846499 -0.289226E-06  0.585E-04    2.42      16.8  T
   7   -154.4846500 -0.173140E-07  0.260E-04    2.42      38.0  T
     SCC iter.                  ...        0 min,  0.971 sec
     gradient                   ...        0 min,  0.128 sec
 * total energy  :  -151.8206824 Eh     change       -0.1457568E-03 Eh
   gradient norm :     0.0027038 Eh/α   predicted    -0.7964895E-04 ( -45.35%)
   displ. norm   :     0.4310681 α      lambda       -0.9488606E-04
   maximum displ.:     0.2367028 α      in ANC's #4, #2, #3, ...

........................................................................
.............................. CYCLE   36 ..............................
........................................................................

 iter      E             dE          RMSdq      gap      omega  full diag
   1   -154.4845163 -0.154485E+03  0.393E-02    2.43       0.0  T
   2   -154.4845175 -0.115657E-05  0.212E-02    2.43       1.0  T
   3   -154.4845164  0.106696E-05  0.490E-03    2.43       2.0  T
   4   -154.4845173 -0.858674E-06  0.284E-03    2.43       3.5  T
   5   -154.4845178 -0.558008E-06  0.828E-04    2.43      11.9  T
   6   -154.4845179 -0.527286E-07  0.297E-04    2.43      33.2  T
     SCC iter.                  ...        0 min,  1.012 sec
     gradient                   ...        0 min,  0.135 sec
 * total energy  :  -151.8207641 Eh     change       -0.8172061E-04 Eh
   gradient norm :     0.0025812 Eh/α   predicted    -0.5626382E-04 ( -31.15%)
   displ. norm   :     0.5609540 α      lambda       -0.1225504E-03
   maximum displ.:     0.3102548 α      in ANC's #4, #2, #3, ...

........................................................................
.............................. CYCLE   37 ..............................
........................................................................

 iter      E             dE          RMSdq      gap      omega  full diag
   1   -154.4840370 -0.154484E+03  0.499E-02    2.44       0.0  T
   2   -154.4840391 -0.208262E-05  0.268E-02    2.44       1.0  T
   3   -154.4840371  0.193122E-05  0.639E-03    2.44       1.5  T
   4   -154.4840386 -0.145446E-05  0.383E-03    2.44       2.6  T
   5   -154.4840397 -0.107838E-05  0.112E-03    2.44       8.8  T
   6   -154.4840397 -0.938678E-07  0.383E-04    2.44      25.8  T
   7   -154.4840398 -0.762984E-08  0.173E-04    2.44      56.8  T
     SCC iter.                  ...        0 min,  1.079 sec
     gradient                   ...        0 min,  0.132 sec
 * total energy  :  -151.8208701 Eh     change       -0.1060483E-03 Eh
   gradient norm :     0.0023958 Eh/α   predicted    -0.8055821E-04 ( -24.04%)
   displ. norm   :     0.6049994 α      lambda       -0.1420124E-03
   maximum displ.:     0.3321877 α      in ANC's #4, #2, #3, ...

........................................................................
.............................. CYCLE   38 ..............................
........................................................................

 iter      E             dE          RMSdq      gap      omega  full diag
   1   -154.4845983 -0.154485E+03  0.505E-02    2.44       0.0  T
   2   -154.4846001 -0.183687E-05  0.277E-02    2.44       1.0  T
   3   -154.4845977  0.239368E-05  0.663E-03    2.44       1.5  T
   4   -154.4845999 -0.223062E-05  0.356E-03    2.44       2.8  T
   5   -154.4846007 -0.757865E-06  0.121E-03    2.44       8.1  T
   6   -154.4846008 -0.113072E-06  0.383E-04    2.44      25.7  T
   7   -154.4846008 -0.770342E-08  0.184E-04    2.44      53.5  T
     SCC iter.                  ...        0 min,  1.001 sec
     gradient                   ...        0 min,  0.136 sec
 * total energy  :  -151.8209882 Eh     change       -0.1180623E-03 Eh
   gradient norm :     0.0016766 Eh/α   predicted    -0.9700228E-04 ( -17.84%)
   displ. norm   :     0.8800479 α      lambda       -0.1238773E-03
   maximum displ.:     0.4764528 α      in ANC's #4, #2, #3, ...

........................................................................
.............................. CYCLE   39 ..............................
........................................................................

 iter      E             dE          RMSdq      gap      omega  full diag
   1   -154.4840505 -0.154484E+03  0.686E-02    2.45       0.0  T
   2   -154.4840537 -0.319718E-05  0.379E-02    2.45       1.0  T
   3   -154.4840494  0.427380E-05  0.869E-03    2.45       1.1  T
   4   -154.4840533 -0.391719E-05  0.473E-03    2.45       2.1  T
   5   -154.4840547 -0.138534E-05  0.161E-03    2.45       6.1  T
   6   -154.4840549 -0.187172E-06  0.499E-04    2.45      19.7  T
   7   -154.4840549 -0.137823E-07  0.239E-04    2.45      41.2  T
     SCC iter.                  ...        0 min,  1.034 sec
     gradient                   ...        0 min,  0.124 sec
 * total energy  :  -151.8211261 Eh     change       -0.1379346E-03 Eh
   gradient norm :     0.0024588 Eh/α   predicted    -0.8326287E-04 ( -39.64%)
   displ. norm   :     0.3293976 α      lambda       -0.9150107E-04
   maximum displ.:     0.1825765 α      in ANC's #2, #4, #3, ...

........................................................................
.............................. CYCLE   40 ..............................
........................................................................

 iter      E             dE          RMSdq      gap      omega  full diag
   1   -154.4877312 -0.154488E+03  0.267E-02    2.45       0.0  T
   2   -154.4877320 -0.751503E-06  0.148E-02    2.45       1.0  T
   3   -154.4877315  0.514514E-06  0.356E-03    2.45       2.8  T
   4   -154.4877319 -0.468901E-06  0.186E-03    2.45       5.3  T
   5   -154.4877321 -0.190024E-06  0.780E-04    2.45      12.6  T
   6   -154.4877322 -0.428655E-07  0.257E-04    2.45      38.3  T
     SCC iter.                  ...        0 min,  0.729 sec
     gradient                   ...        0 min,  0.127 sec
 * total energy  :  -151.8211861 Eh     change       -0.5998568E-04 Eh
   gradient norm :     0.0030121 Eh/α   predicted    -0.5071661E-04 ( -15.45%)
   displ. norm   :     0.3597727 α      lambda       -0.8530627E-04
   maximum displ.:     0.1980604 α      in ANC's #2, #4, #3, ...

........................................................................
.............................. CYCLE   41 ..............................
........................................................................

 iter      E             dE          RMSdq      gap      omega  full diag
   1   -154.4870321 -0.154487E+03  0.263E-02    2.46       0.0  T
   2   -154.4870327 -0.545049E-06  0.144E-02    2.46       1.0  T
   3   -154.4870323  0.361809E-06  0.303E-03    2.46       3.2  T
   4   -154.4870326 -0.260692E-06  0.184E-03    2.46       5.4  T
   5   -154.4870328 -0.226842E-06  0.618E-04    2.46      15.9  T
   6   -154.4870328 -0.258259E-07  0.217E-04    2.46      45.5  T
     SCC iter.                  ...        0 min,  0.792 sec
     gradient                   ...        0 min,  0.133 sec
 * total energy  :  -151.8212597 Eh     change       -0.7358730E-04 Eh
   gradient norm :     0.0018653 Eh/α   predicted    -0.4817523E-04 ( -34.53%)
   displ. norm   :     0.6080432 α      lambda       -0.9226460E-04
   maximum displ.:     0.3414464 α      in ANC's #2, #4, #3, ...

........................................................................
.............................. CYCLE   42 ..............................
........................................................................

 iter      E             dE          RMSdq      gap      omega  full diag
   1   -154.4855990 -0.154486E+03  0.466E-02    2.47       0.0  T
   2   -154.4856006 -0.156471E-05  0.255E-02    2.47       1.0  T
   3   -154.4855999  0.686712E-06  0.520E-03    2.47       1.9  T
   4   -154.4856004 -0.560531E-06  0.294E-03    2.47       3.4  T
   5   -154.4856009 -0.458807E-06  0.105E-03    2.47       9.4  T
   6   -154.4856010 -0.878676E-07  0.368E-04    2.47      26.8  T
   7   -154.4856010 -0.871378E-08  0.163E-04    2.47      60.4  T
     SCC iter.                  ...        0 min,  1.088 sec
     gradient                   ...        0 min,  0.129 sec
 * total energy  :  -151.8213623 Eh     change       -0.1026346E-03 Eh
   gradient norm :     0.0023539 Eh/α   predicted    -0.5371730E-04 ( -47.66%)
   displ. norm   :     0.3263340 α      lambda       -0.6115849E-04
   maximum displ.:     0.1883750 α      in ANC's #2, #4, #3, ...
 * RMSD in coord.:     0.6791839 α      energy gain  -0.1556465E-02 Eh

generating ANC from exact Hessian ...
Using Lindh-Hessian (1995)
 Shifting diagonal of input Hessian by    1.0195410088023946E-002
 Lowest  eigenvalues of input Hessian
    0.010000    0.010121    0.000000    0.000000    0.000000    0.000000
    0.000000    0.000000    0.010264    0.010443    0.010468    0.010516
    0.010609    0.010708    0.010768    0.010914    0.011004    0.011132
 Highest eigenvalues
    2.035700    2.074917    2.103477    2.107409    2.116111    2.127191


........................................................................
.............................. CYCLE   43 ..............................
........................................................................

 iter      E             dE          RMSdq      gap      omega  full diag
   1   -154.4858746 -0.154486E+03  0.270E-02    2.47       0.0  T
   2   -154.4858751 -0.421195E-06  0.148E-02    2.47       1.0  T
   3   -154.4858749  0.193934E-06  0.285E-03    2.47       3.5  T
   4   -154.4858750 -0.170565E-06  0.159E-03    2.47       6.2  T
   5   -154.4858752 -0.119908E-06  0.574E-04    2.47      17.2  T
   6   -154.4858752 -0.282550E-07  0.193E-04    2.47      51.1  T
     SCC iter.                  ...        0 min,  0.915 sec
     gradient                   ...        0 min,  0.135 sec
 * total energy  :  -151.8214160 Eh     change       -0.5369000E-04 Eh
   gradient norm :     0.0019730 Eh/α   predicted     0.0000000E+00 (-100.00%)
   displ. norm   :     0.0517819 α      lambda       -0.4035978E-05
   maximum displ.:     0.0164760 α      in ANC's #1, #20, #27, ...

........................................................................
.............................. CYCLE   44 ..............................
........................................................................

 iter      E             dE          RMSdq      gap      omega  full diag
   1   -154.4880043 -0.154488E+03  0.140E-02    2.48       0.0  T
   2   -154.4880046 -0.334236E-06  0.708E-03    2.48       1.4  T
   3   -154.4880045  0.125398E-06  0.210E-03    2.48       4.7  T
   4   -154.4880046 -0.150785E-06  0.114E-03    2.48       8.6  T
   5   -154.4880047 -0.532231E-07  0.324E-04    2.48      30.4  T
   6   -154.4880047 -0.623209E-08  0.174E-04    2.48      56.8  T
     SCC iter.                  ...        0 min,  0.702 sec
     gradient                   ...        0 min,  0.140 sec
 * total energy  :  -151.8214423 Eh     change       -0.2625389E-04 Eh
   gradient norm :     0.0009220 Eh/α   predicted    -0.1165949E-04 ( -55.59%)
   displ. norm   :     0.1362077 α      lambda       -0.3677108E-04
   maximum displ.:     0.0413466 α      in ANC's #3, #20, #2, ...

........................................................................
.............................. CYCLE   45 ..............................
........................................................................

 iter      E             dE          RMSdq      gap      omega  full diag
   1   -154.4888212 -0.154489E+03  0.314E-02    2.47       0.0  T
   2   -154.4888223 -0.108783E-05  0.168E-02    2.47       1.0  T
   3   -154.4888218  0.440749E-06  0.430E-03    2.47       2.3  T
   4   -154.4888223 -0.452912E-06  0.228E-03    2.47       4.3  T
   5   -154.4888225 -0.217725E-06  0.817E-04    2.47      12.1  T
   6   -154.4888226 -0.479162E-07  0.328E-04    2.47      30.0  T
     SCC iter.                  ...        0 min,  0.840 sec
     gradient                   ...        0 min,  0.126 sec
 * total energy  :  -151.8214722 Eh     change       -0.2995596E-04 Eh
   gradient norm :     0.0018709 Eh/α   predicted    -0.1853911E-04 ( -38.11%)
   displ. norm   :     0.1594470 α      lambda       -0.3364315E-04
   maximum displ.:     0.0545082 α      in ANC's #1, #3, #2, ...

........................................................................
.............................. CYCLE   46 ..............................
........................................................................

 iter      E             dE          RMSdq      gap      omega  full diag
   1   -154.4878202 -0.154488E+03  0.373E-02    2.47       0.0  T
   2   -154.4878221 -0.195263E-05  0.190E-02    2.47       1.0  T
   3   -154.4878218  0.346460E-06  0.535E-03    2.47       1.8  T
   4   -154.4878224 -0.594326E-06  0.276E-03    2.47       3.6  T
   5   -154.4878225 -0.152840E-06  0.113E-03    2.47       8.7  T
   6   -154.4878226 -0.779579E-07  0.496E-04    2.47      19.9  T
   7   -154.4878226 -0.326520E-08  0.336E-04    2.47      29.3  T
     SCC iter.                  ...        0 min,  1.030 sec
     gradient                   ...        0 min,  0.128 sec
 * total energy  :  -151.8214830 Eh     change       -0.1074793E-04 Eh
   gradient norm :     0.0022087 Eh/α   predicted    -0.1701223E-04 (  58.28%)
   displ. norm   :     0.0320950 α      lambda       -0.2379819E-04
   maximum displ.:     0.0110704 α      in ANC's #2, #3, #18, ...

........................................................................
.............................. CYCLE   47 ..............................
........................................................................

 iter      E             dE          RMSdq      gap      omega  full diag
   1   -154.4875743 -0.154488E+03  0.114E-02    2.47       0.0  T
   2   -154.4875746 -0.338463E-06  0.510E-03    2.47       1.9  T
   3   -154.4875746  0.511572E-07  0.166E-03    2.47       5.9  T
   4   -154.4875747 -0.991976E-07  0.845E-04    2.47      11.7  T
   5   -154.4875747 -0.144546E-07  0.462E-04    2.47      21.3  T
     SCC iter.                  ...        0 min,  0.599 sec
     gradient                   ...        0 min,  0.126 sec
 * total energy  :  -151.8215014 Eh     change       -0.1843124E-04 Eh
   gradient norm :     0.0015139 Eh/α   predicted    -0.1191331E-04 ( -35.36%)
   displ. norm   :     0.1425866 α      lambda       -0.4042845E-04
   maximum displ.:     0.0637090 α      in ANC's #3, #2, #6, ...

........................................................................
.............................. CYCLE   48 ..............................
........................................................................

 iter      E             dE          RMSdq      gap      omega  full diag
   1   -154.4868142 -0.154487E+03  0.300E-02    2.48       0.0  T
   2   -154.4868156 -0.134724E-05  0.150E-02    2.48       1.0  T
   3   -154.4868148  0.743360E-06  0.474E-03    2.48       2.1  T
   4   -154.4868157 -0.918087E-06  0.244E-03    2.48       4.0  T
   5   -154.4868159 -0.176923E-06  0.952E-04    2.48      10.4  T
   6   -154.4868160 -0.676346E-07  0.395E-04    2.48      25.0  T
     SCC iter.                  ...        0 min,  0.904 sec
     gradient                   ...        0 min,  0.138 sec
 * total energy  :  -151.8215262 Eh     change       -0.2476780E-04 Eh
   gradient norm :     0.0017507 Eh/α   predicted    -0.2039708E-04 ( -17.65%)
   displ. norm   :     0.1260614 α      lambda       -0.2222133E-04
   maximum displ.:     0.0511402 α      in ANC's #3, #2, #1, ...

........................................................................
.............................. CYCLE   49 ..............................
........................................................................

 iter      E             dE          RMSdq      gap      omega  full diag
   1   -154.4866282 -0.154487E+03  0.192E-02    2.47       0.0  T
   2   -154.4866287 -0.559779E-06  0.105E-02    2.47       1.0  T
   3   -154.4866285  0.216770E-06  0.289E-03    2.48       3.4  T
   4   -154.4866286 -0.930154E-07  0.155E-03    2.47       6.4  T
   5   -154.4866288 -0.202847E-06  0.582E-04    2.47      16.9  T
   6   -154.4866288 -0.186208E-07  0.285E-04    2.47      34.6  T
     SCC iter.                  ...        0 min,  0.892 sec
     gradient                   ...        0 min,  0.132 sec
 * total energy  :  -151.8215503 Eh     change       -0.2409337E-04 Eh
   gradient norm :     0.0015403 Eh/α   predicted    -0.1119065E-04 ( -53.55%)
   displ. norm   :     0.3097748 α      lambda       -0.4279207E-04
   maximum displ.:     0.1379189 α      in ANC's #3, #2, #6, ...

........................................................................
.............................. CYCLE   50 ..............................
........................................................................

 iter      E             dE          RMSdq      gap      omega  full diag
   1   -154.4862198 -0.154486E+03  0.422E-02    2.47       0.0  T
   2   -154.4862205 -0.636840E-06  0.244E-02    2.47       1.0  T
   3   -154.4862200  0.482860E-06  0.343E-03    2.47       2.9  T
   4   -154.4862205 -0.504064E-06  0.178E-03    2.47       5.5  T
   5   -154.4862207 -0.174641E-06  0.826E-04    2.47      11.9  T
   6   -154.4862207 -0.388280E-07  0.391E-04    2.47      25.2  T
     SCC iter.                  ...        0 min,  0.886 sec
     gradient                   ...        0 min,  0.129 sec
 * total energy  :  -151.8215939 Eh     change       -0.4356887E-04 Eh
   gradient norm :     0.0014225 Eh/α   predicted    -0.2231389E-04 ( -48.78%)
   displ. norm   :     0.2949821 α      lambda       -0.2586514E-04
   maximum displ.:     0.1342607 α      in ANC's #3, #2, #6, ...

........................................................................
.............................. CYCLE   51 ..............................
........................................................................

 iter      E             dE          RMSdq      gap      omega  full diag
   1   -154.4865175 -0.154487E+03  0.379E-02    2.47       0.0  T
   2   -154.4865179 -0.325804E-06  0.221E-02    2.47       1.0  T
   3   -154.4865170  0.858138E-06  0.318E-03    2.47       3.1  T
   4   -154.4865180 -0.999393E-06  0.101E-03    2.47       9.8  T
   5   -154.4865180 -0.255088E-07  0.569E-04    2.47      17.3  T
   6   -154.4865180 -0.180035E-07  0.248E-04    2.47      39.8  T
     SCC iter.                  ...        0 min,  0.881 sec
     gradient                   ...        0 min,  0.129 sec
 * total energy  :  -151.8216233 Eh     change       -0.2940791E-04 Eh
   gradient norm :     0.0012451 Eh/α   predicted    -0.1343363E-04 ( -54.32%)
   displ. norm   :     0.2466101 α      lambda       -0.2076966E-04
   maximum displ.:     0.1143192 α      in ANC's #3, #2, #6, ...

........................................................................
.............................. CYCLE   52 ..............................
........................................................................

 iter      E             dE          RMSdq      gap      omega  full diag
   1   -154.4874626 -0.154487E+03  0.312E-02    2.47       0.0  T
   2   -154.4874630 -0.387520E-06  0.180E-02    2.47       1.0  T
   3   -154.4874624  0.666973E-06  0.330E-03    2.47       3.0  T
   4   -154.4874631 -0.760220E-06  0.125E-03    2.47       7.9  T
   5   -154.4874632 -0.494135E-07  0.602E-04    2.47      16.4  T
   6   -154.4874632 -0.262687E-07  0.237E-04    2.47      41.6  T
     SCC iter.                  ...        0 min,  0.943 sec
     gradient                   ...        0 min,  0.125 sec
 * total energy  :  -151.8216469 Eh     change       -0.2368546E-04 Eh
   gradient norm :     0.0006704 Eh/α   predicted    -0.1066818E-04 ( -54.96%)
   displ. norm   :     0.2288132 α      lambda       -0.1572120E-04
   maximum displ.:     0.1086538 α      in ANC's #2, #3, #6, ...

........................................................................
.............................. CYCLE   53 ..............................
........................................................................

 iter      E             dE          RMSdq      gap      omega  full diag
   1   -154.4879997 -0.154488E+03  0.276E-02    2.47       0.0  T
   2   -154.4879999 -0.276235E-06  0.159E-02    2.47       1.0  T
   3   -154.4879994  0.515994E-06  0.289E-03    2.47       3.4  T
   4   -154.4880000 -0.591719E-06  0.105E-03    2.47       9.4  T
   5   -154.4880000 -0.331656E-07  0.497E-04    2.47      19.8  T
   6   -154.4880001 -0.184178E-07  0.175E-04    2.47      56.4  T
     SCC iter.                  ...        0 min,  0.908 sec
     gradient                   ...        0 min,  0.125 sec
 * total energy  :  -151.8216653 Eh     change       -0.1833290E-04 Eh
   gradient norm :     0.0007160 Eh/α   predicted    -0.8045323E-05 ( -56.12%)
   displ. norm   :     0.2170453 α      lambda       -0.1458927E-04
   maximum displ.:     0.1092317 α      in ANC's #2, #3, #6, ...

........................................................................
.............................. CYCLE   54 ..............................
........................................................................

 iter      E             dE          RMSdq      gap      omega  full diag
   1   -154.4882471 -0.154488E+03  0.241E-02    2.47       0.0  T
   2   -154.4882473 -0.188915E-06  0.140E-02    2.47       1.0  T
   3   -154.4882469  0.465058E-06  0.249E-03    2.47       4.0  T
   4   -154.4882474 -0.536282E-06  0.805E-04    2.47      12.2  T
   5   -154.4882474 -0.179902E-07  0.404E-04    2.47      24.4  T
     SCC iter.                  ...        0 min,  0.705 sec
     gradient                   ...        0 min,  0.124 sec
 * total energy  :  -151.8216834 Eh     change       -0.1809945E-04 Eh
   gradient norm :     0.0010368 Eh/α   predicted    -0.7448429E-05 ( -58.85%)
   displ. norm   :     0.2425010 α      lambda       -0.1775263E-04
   maximum displ.:     0.1277529 α      in ANC's #2, #3, #6, ...

........................................................................
.............................. CYCLE   55 ..............................
........................................................................

 iter      E             dE          RMSdq      gap      omega  full diag
   1   -154.4882129 -0.154488E+03  0.256E-02    2.47       0.0  T
   2   -154.4882131 -0.208358E-06  0.150E-02    2.47       1.0  T
   3   -154.4882125  0.650838E-06  0.281E-03    2.47       3.5  T
   4   -154.4882132 -0.758822E-06  0.743E-04    2.47      13.3  T
   5   -154.4882132 -0.882201E-08  0.417E-04    2.47      23.6  T
     SCC iter.                  ...        0 min,  0.627 sec
     gradient                   ...        0 min,  0.124 sec
 * total energy  :  -151.8217057 Eh     change       -0.2228651E-04 Eh
   gradient norm :     0.0011239 Eh/α   predicted    -0.9112324E-05 ( -59.11%)
   displ. norm   :     0.2679055 α      lambda       -0.1976992E-04
   maximum displ.:     0.1476385 α      in ANC's #2, #3, #6, ...

........................................................................
.............................. CYCLE   56 ..............................
........................................................................

 iter      E             dE          RMSdq      gap      omega  full diag
   1   -154.4878425 -0.154488E+03  0.275E-02    2.47       0.0  T
   2   -154.4878427 -0.245545E-06  0.161E-02    2.47       1.0  T
   3   -154.4878420  0.731298E-06  0.298E-03    2.47       3.3  T
   4   -154.4878429 -0.865064E-06  0.744E-04    2.47      13.3  T
   5   -154.4878429 -0.366313E-08  0.416E-04    2.47      23.7  T
     SCC iter.                  ...        0 min,  0.662 sec
     gradient                   ...        0 min,  0.124 sec
 * total energy  :  -151.8217290 Eh     change       -0.2337596E-04 Eh
   gradient norm :     0.0008422 Eh/α   predicted    -0.1020422E-04 ( -56.35%)
   displ. norm   :     0.2081967 α      lambda       -0.1372972E-04
   maximum displ.:     0.1218544 α      in ANC's #2, #3, #4, ...

........................................................................
.............................. CYCLE   57 ..............................
........................................................................

 iter      E             dE          RMSdq      gap      omega  full diag
   1   -154.4876895 -0.154488E+03  0.214E-02    2.47       0.0  T
   2   -154.4876897 -0.156734E-06  0.125E-02    2.47       1.0  T
   3   -154.4876892  0.456237E-06  0.242E-03    2.47       4.1  T
   4   -154.4876898 -0.542347E-06  0.630E-04    2.47      15.6  T
   5   -154.4876898 -0.192011E-08  0.378E-04    2.47      26.1  T
     SCC iter.                  ...        0 min,  0.620 sec
     gradient                   ...        0 min,  0.131 sec
 * total energy  :  -151.8217449 Eh     change       -0.1589166E-04 Eh
   gradient norm :     0.0005353 Eh/α   predicted    -0.7001741E-05 ( -55.94%)
   displ. norm   :     0.1272631 α      lambda       -0.8550031E-05
   maximum displ.:     0.0806566 α      in ANC's #2, #3, #4, ...

........................................................................
.............................. CYCLE   58 ..............................
........................................................................

 iter      E             dE          RMSdq      gap      omega  full diag
   1   -154.4876099 -0.154488E+03  0.133E-02    2.47       0.0  T
   2   -154.4876099 -0.587684E-07  0.777E-03    2.47       1.3  T
   3   -154.4876098  0.131528E-06  0.133E-03    2.47       7.4  T
   4   -154.4876100 -0.159666E-06  0.367E-04    2.47      26.8  T
   5   -154.4876100 -0.261912E-08  0.185E-04    2.47      53.2  T
     SCC iter.                  ...        0 min,  0.545 sec
     gradient                   ...        0 min,  0.128 sec
 * total energy  :  -151.8217554 Eh     change       -0.1049735E-04 Eh
[...]
    85   1 H        0.926     0.046     2.368     2.406
    86   1 H        0.925     0.067     2.123     2.278
    87   1 H        0.924     0.065     2.144     2.290
    88   1 H        0.924     0.060     2.205     2.322
    89   1 H        0.926     0.038     2.481     2.463
    90   1 H        0.926     0.047     2.359     2.402
    91   1 H        0.926     0.044     2.394     2.420
    92   1 H        0.926     0.050     2.325     2.384
    93   1 H        0.926     0.048     2.341     2.393
    94   1 H        0.926     0.040     2.444     2.445
    95   1 H        0.926     0.042     2.420     2.433
    96   1 H        0.926     0.051     2.303     2.373
    97   1 H        0.926     0.047     2.361     2.403
    98   1 H        0.926     0.049     2.336     2.390
    99   1 H        0.926     0.046     2.376     2.411
   100   1 H        0.926     0.036     2.504     2.475
   101   1 H        0.925     0.074     2.044     2.236
   102   1 H        0.925     0.067     2.116     2.275
   103   1 H        0.924     0.051     2.308     2.376

 Mol. C6AA /au·bohr⁶  :     153630.854557
 Mol. C8AA /au·bohr⁸  :    4125148.067004
 Mol. α(0) /au        :        632.879258


Wiberg/Mayer (AO) data.
largest (>0.10) Wiberg bond orders for each atom

 ---------------------------------------------------------------------------
     #   Z sym  total        # sym  WBO       # sym  WBO       # sym  WBO
 ---------------------------------------------------------------------------
     1   6 C    3.989 --     2 C    0.991    60 H    0.979    61 H    0.977
                            59 H    0.972
     2   6 C    3.953 --     1 C    0.991     3 C    0.985    13 N    0.942
                            62 H    0.939
     3   6 C    3.984 --     4 C    1.528    12 C    1.249     2 C    0.985
                             6 C    0.115
     4   6 C    3.980 --     3 C    1.528     5 C    1.323    63 H    0.915
     5   6 C    3.991 --     6 C    1.551     4 C    1.323    64 H    0.970
     6   6 C    3.987 --     5 C    1.551     7 C    1.280    65 H    0.967
                             3 C    0.115
     7   6 C    3.989 --     6 C    1.280     8 C    1.279    12 C    1.252
     8   6 C    3.990 --     9 C    1.557     7 C    1.279    66 H    0.967
                            11 C    0.118
     9   6 C    3.991 --     8 C    1.557    10 C    1.322    67 H    0.970
    10   6 C    3.991 --    11 C    1.553     9 C    1.322    68 H    0.970
    11   6 C    3.991 --    10 C    1.553    12 C    1.282    69 H    0.962
                             8 C    0.118
    12   6 C    3.987 --    11 C    1.282     7 C    1.252     3 C    1.249
    13   7 N    3.399 --    26 P    1.262     2 C    0.942    14 C    0.915
    14   6 C    3.952 --    15 C    0.996    16 C    0.987    70 H    0.921
                            13 N    0.915
    15   6 C    3.988 --    14 C    0.996    72 H    0.980    73 H    0.979
                            71 H    0.978
    16   6 C    3.981 --    17 C    1.526    25 C    1.243    14 C    0.987
                            19 C    0.115
    17   6 C    3.990 --    16 C    1.526    18 C    1.324    74 H    0.959
    18   6 C    3.991 --    19 C    1.555    17 C    1.324    75 H    0.970
    19   6 C    3.989 --    18 C    1.555    20 C    1.278    76 H    0.967
                            16 C    0.115
    20   6 C    3.990 --    21 C    1.281    19 C    1.278    25 C    1.252
    21   6 C    3.990 --    22 C    1.555    20 C    1.281    77 H    0.967
                            24 C    0.118
    22   6 C    3.991 --    21 C    1.555    23 C    1.324    78 H    0.970
    23   6 C    3.990 --    24 C    1.550    22 C    1.324    79 H    0.969
    24   6 C    3.992 --    23 C    1.550    25 C    1.287    80 H    0.954
                            21 C    0.118
    25   6 C    3.988 --    24 C    1.287    20 C    1.252    16 C    1.243
    26  15 P    5.166 --    13 N    1.262    35 N    1.228    57 N    1.195
                            27 S    0.968
    27  16 S    2.444 --    28 S    1.158    26 P    0.968
    28  16 S    2.374 --    27 S    1.158    29 C    0.987
    29   6 C    3.949 --    34 C    1.407    30 C    1.393    28 S    0.987
                            32 C    0.101
    30   6 C    3.987 --    31 C    1.443    29 C    1.393    81 H    0.967
                            33 C    0.110
    31   6 C    3.987 --    30 C    1.443    32 C    1.434    82 H    0.967
                            34 C    0.108
    32   6 C    3.986 --    33 C    1.437    31 C    1.434    83 H    0.969
                            29 C    0.101
    33   6 C    3.990 --    32 C    1.437    34 C    1.437    84 H    0.968
                            30 C    0.110
    34   6 C    3.988 --    33 C    1.437    29 C    1.407    85 H    0.962
                            31 C    0.108
    35   7 N    3.423 --    26 P    1.228    36 C    0.972    37 C    0.959
    36   6 C    3.957 --    87 H    0.975    88 H    0.973    35 N    0.972
                            86 H    0.962
    37   6 C    3.950 --    46 C    1.456    38 C    1.289    35 N    0.959
    38   6 C    3.989 --    39 C    1.556    37 C    1.289    89 H    0.962
    39   6 C    3.985 --    38 C    1.556    40 C    1.273    90 H    0.966
                            46 C    0.106
    40   6 C    3.988 --    41 C    1.279    39 C    1.273    45 C    1.256
    41   6 C    3.989 --    42 C    1.555    40 C    1.279    91 H    0.967
                            44 C    0.117
    42   6 C    3.986 --    41 C    1.555    43 C    1.322    92 H    0.969
    43   6 C    3.990 --    44 C    1.553    42 C    1.322    93 H    0.970
    44   6 C    3.988 --    43 C    1.553    45 C    1.285    94 H    0.965
                            41 C    0.117
    45   6 C    3.987 --    44 C    1.285    40 C    1.256    46 C    1.231
    46   6 C    3.985 --    37 C    1.456    45 C    1.231    47 C    1.035
                            39 C    0.106
    47   6 C    3.984 --    48 C    1.451    56 C    1.231    46 C    1.035
                            50 C    0.105
    48   6 C    3.950 --    47 C    1.451    49 C    1.278    57 N    0.986
    49   6 C    3.985 --    50 C    1.557    48 C    1.278    95 H    0.964
    50   6 C    3.984 --    49 C    1.557    51 C    1.272    96 H    0.966
                            47 C    0.105
    51   6 C    3.988 --    52 C    1.280    50 C    1.272    56 C    1.255
    52   6 C    3.989 --    53 C    1.554    51 C    1.280    97 H    0.967
                            55 C    0.118
    53   6 C    3.986 --    52 C    1.554    54 C    1.323    98 H    0.970
    54   6 C    3.990 --    55 C    1.552    53 C    1.323    99 H    0.970
    55   6 C    3.990 --    54 C    1.552    56 C    1.285   100 H    0.965
                            52 C    0.118
    56   6 C    3.987 --    55 C    1.285    51 C    1.255    47 C    1.231
    57   7 N    3.421 --    26 P    1.195    48 C    0.986    58 C    0.972
    58   6 C    3.962 --   101 H    0.978    57 N    0.972   103 H    0.972
                           102 H    0.961
    59   1 H    0.996 --     1 C    0.972
    60   1 H    0.995 --     1 C    0.979
    61   1 H    0.996 --     1 C    0.977
    62   1 H    0.994 --     2 C    0.939
    63   1 H    0.998 --     4 C    0.915
    64   1 H    0.998 --     5 C    0.970
    65   1 H    0.996 --     6 C    0.967
    66   1 H    0.997 --     8 C    0.967
    67   1 H    0.997 --     9 C    0.970
    68   1 H    0.998 --    10 C    0.970
    69   1 H    0.999 --    11 C    0.962
    70   1 H    0.996 --    14 C    0.921
    71   1 H    0.997 --    15 C    0.978
    72   1 H    0.997 --    15 C    0.980
    73   1 H    0.995 --    15 C    0.979
    74   1 H    0.998 --    17 C    0.959
    75   1 H    0.997 --    18 C    0.970
    76   1 H    0.996 --    19 C    0.967
    77   1 H    0.997 --    21 C    0.967
    78   1 H    0.997 --    22 C    0.970
    79   1 H    0.998 --    23 C    0.969
    80   1 H    0.999 --    24 C    0.954
    81   1 H    0.998 --    30 C    0.967
    82   1 H    0.996 --    31 C    0.967
    83   1 H    0.996 --    32 C    0.969
    84   1 H    0.997 --    33 C    0.968
    85   1 H    0.998 --    34 C    0.962
    86   1 H    0.995 --    36 C    0.962
    87   1 H    0.995 --    36 C    0.975
    88   1 H    0.996 --    36 C    0.973
    89   1 H    0.998 --    38 C    0.962
    90   1 H    0.996 --    39 C    0.966
    91   1 H    0.997 --    41 C    0.967
    92   1 H    0.997 --    42 C    0.969
    93   1 H    0.997 --    43 C    0.970
    94   1 H    0.998 --    44 C    0.965
    95   1 H    0.997 --    49 C    0.964
    96   1 H    0.996 --    50 C    0.966
    97   1 H    0.997 --    52 C    0.967
    98   1 H    0.997 --    53 C    0.970
    99   1 H    0.997 --    54 C    0.970
   100   1 H    0.998 --    55 C    0.965
   101   1 H    0.994 --    58 C    0.978
   102   1 H    0.994 --    58 C    0.961
   103   1 H    0.997 --    58 C    0.972
 ---------------------------------------------------------------------------

Topologies differ in total number of bonds
Writing topology from bond orders to xtbtopo.mol

molecular dipole:
                 x           y           z       tot (Debye)
 q only:        0.284      -0.085      -0.392
   full:        0.406       0.006      -0.359       1.379
molecular quadrupole (traceless):
                xx          xy          yy          xz          yz          zz
 q only:       22.472      13.057      -6.382      18.440      -1.176     -16.090
  q+dip:       24.981      11.297       0.438      25.239       3.905     -25.419
   full:       22.717      13.673      -2.316      19.279       0.313     -20.401

           -------------------------------------------------
          |                Geometry Summary                 |
           -------------------------------------------------

      molecular mass/u    :      807.0390470
   center of mass at/Å    :        0.1703353       0.1132620      -0.0964662
  moments of inertia/u·Å² :        0.7732823E+04   0.1196511E+05   0.1608794E+05
rotational constants/cm⁻¹ :        0.2180010E-02   0.1408899E-02   0.1047843E-02

 * 108 selected distances

     #   Z          #   Z                                           value/Å
     1   6 C        2   6 C                                       1.5292538
     3   6 C        4   6 C                                       1.3681119
     4   6 C        5   6 C                                       1.3994002
     5   6 C        6   6 C                                       1.3647246
     6   6 C        7   6 C                                       1.4098776
     7   6 C        8   6 C                                       1.4110662
     8   6 C        9   6 C                                       1.3654863
     9   6 C       10   6 C                                       1.4019272
    10   6 C       11   6 C                                       1.3673805
     3   6 C       12   6 C                                       1.4222844
     7   6 C       12   6 C                                       1.4230230
    11   6 C       12   6 C                                       1.4133754
     2   6 C       13   7 N                                       1.4692879
    13   7 N       14   6 C                                       1.4904781
    14   6 C       15   6 C                                       1.5299628
    16   6 C       17   6 C                                       1.3738922
    17   6 C       18   6 C                                       1.4002598
    18   6 C       19   6 C                                       1.3633628
    19   6 C       20   6 C                                       1.4098933
    20   6 C       21   6 C                                       1.4111877
    21   6 C       22   6 C                                       1.3652052
    22   6 C       23   6 C                                       1.4009261
    23   6 C       24   6 C                                       1.3677501
    16   6 C       25   6 C                                       1.4286873
    20   6 C       25   6 C                                       1.4248829
    24   6 C       25   6 C                                       1.4133039
    13   7 N       26  15 P                                       1.6497945
    26  15 P       27  16 S                                       2.1443324 (max)
    27  16 S       28  16 S                                       2.0496382
    29   6 C       30   6 C                                       1.3870406
    30   6 C       31   6 C                                       1.3825928
    31   6 C       32   6 C                                       1.3853893
    32   6 C       33   6 C                                       1.3848253
    29   6 C       34   6 C                                       1.3836561
    33   6 C       34   6 C                                       1.3838367
    26  15 P       35   7 N                                       1.6556592
    35   7 N       36   6 C                                       1.4535408
    35   7 N       37   6 C                                       1.4357860
    37   6 C       38   6 C                                       1.4058372
    38   6 C       39   6 C                                       1.3641944
    39   6 C       40   6 C                                       1.4100858
    40   6 C       41   6 C                                       1.4099367
    41   6 C       42   6 C                                       1.3663874
    42   6 C       43   6 C                                       1.4031356
    43   6 C       44   6 C                                       1.3672534
    40   6 C       45   6 C                                       1.4192740
    44   6 C       45   6 C                                       1.4109584
    37   6 C       46   6 C                                       1.3757597
    45   6 C       46   6 C                                       1.4237990
    47   6 C       48   6 C                                       1.3789360
    48   6 C       49   6 C                                       1.4100635
    49   6 C       50   6 C                                       1.3642744
    50   6 C       51   6 C                                       1.4097378
    51   6 C       52   6 C                                       1.4100927
    52   6 C       53   6 C                                       1.3666343
    53   6 C       54   6 C                                       1.4029855
    54   6 C       55   6 C                                       1.3676239
    47   6 C       56   6 C                                       1.4250155
    51   6 C       56   6 C                                       1.4193020
    55   6 C       56   6 C                                       1.4114098
    26  15 P       57   7 N                                       1.6652880
    48   6 C       57   7 N                                       1.4246884
    57   7 N       58   6 C                                       1.4581562
     1   6 C       59   1 H                                       1.0858076
     1   6 C       60   1 H                                       1.0876426
     1   6 C       61   1 H                                       1.0881266
     2   6 C       62   1 H                                       1.0887072
     4   6 C       63   1 H                                       1.0854711
     5   6 C       64   1 H                                       1.0793713
     6   6 C       65   1 H                                       1.0794819
     8   6 C       66   1 H                                       1.0799080
     9   6 C       67   1 H                                       1.0789624
    10   6 C       68   1 H                                       1.0795906
    11   6 C       69   1 H                                       1.0799633
    14   6 C       70   1 H                                       1.0918412
    15   6 C       71   1 H                                       1.0864628
    15   6 C       72   1 H                                       1.0881019
    15   6 C       73   1 H                                       1.0875415
    17   6 C       74   1 H                                       1.0758090 (min)
    18   6 C       75   1 H                                       1.0789912
    19   6 C       76   1 H                                       1.0794279
    21   6 C       77   1 H                                       1.0798444
    22   6 C       78   1 H                                       1.0789297
    23   6 C       79   1 H                                       1.0798045
    24   6 C       80   1 H                                       1.0773849
    30   6 C       81   1 H                                       1.0793035
    31   6 C       82   1 H                                       1.0787333
    32   6 C       83   1 H                                       1.0789422
    33   6 C       84   1 H                                       1.0792280
    34   6 C       85   1 H                                       1.0800462
    36   6 C       86   1 H                                       1.0875679
    36   6 C       87   1 H                                       1.0911318
    36   6 C       88   1 H                                       1.0903609
    38   6 C       89   1 H                                       1.0796982
    39   6 C       90   1 H                                       1.0790794
    41   6 C       91   1 H                                       1.0796872
    42   6 C       92   1 H                                       1.0791604
    43   6 C       93   1 H                                       1.0792856
    44   6 C       94   1 H                                       1.0791919
    49   6 C       95   1 H                                       1.0780380
    50   6 C       96   1 H                                       1.0793334
    52   6 C       97   1 H                                       1.0798069
    53   6 C       98   1 H                                       1.0790683
    54   6 C       99   1 H                                       1.0793224
    55   6 C      100   1 H                                       1.0789654
    58   6 C      101   1 H                                       1.0893775
    58   6 C      102   1 H                                       1.0897770
    58   6 C      103   1 H                                       1.0924842

 * 6 distinct bonds (by element types)

   Z      Z             #   av. dist./Å        max./Å        min./Å
   1 H    6 C          45     1.0823280     1.0924842     1.0758090
   6 C    6 C          52     1.3999089     1.5299628     1.3633628
   6 C    7 N           6     1.4553229     1.4904781     1.4246884
   7 N   15 P           3     1.6569139     1.6652880     1.6497945
  15 P   16 S           1     2.1443324     2.1443324     2.1443324
  16 S   16 S           1     2.0496382     2.0496382     2.0496382


optimized geometry written to: xtbopt.xyz


           -------------------------------------------------
          | TOTAL ENERGY             -151.823315552858 Eh   |
          | GRADIENT NORM               0.000082168365 Eh/α |
          | HOMO-LUMO GAP               2.449519623581 eV   |
           -------------------------------------------------

------------------------------------------------------------------------
 * finished run on 2024/12/16 at 18:42:27.942     
------------------------------------------------------------------------
 total:
 * wall-time:     0 d,  0 h, 15 min, 21.003 sec
 *  cpu-time:     0 d,  1 h, 59 min, 45.301 sec
 * ratio c/w:     7.802 speedup
 SCF:
 * wall-time:     0 d,  0 h,  0 min,  2.607 sec
 *  cpu-time:     0 d,  0 h,  0 min, 20.675 sec
 * ratio c/w:     7.932 speedup
 ANC optimizer:
 * wall-time:     0 d,  0 h, 15 min, 18.223 sec
 *  cpu-time:     0 d,  1 h, 59 min, 23.303 sec
 * ratio c/w:     7.801 speedup

