      -----------------------------------------------------------      
     |                   =====================                   |     
     |                           x T B                           |     
     |                   =====================                   |     
     |                         S. Grimme                         |     
     |          Mulliken Center for Theoretical Chemistry        |     
     |                    University of Bonn                     |     
      -----------------------------------------------------------      

   * xtb version 6.7.1 (edcfbbe) compiled by 'conda@3ef47c1a292c' on 2024-11-25

   xtb is free software: you can redistribute it and/or modify it under
   the terms of the GNU Lesser General Public License as published by
   the Free Software Foundation, either version 3 of the License, or
   (at your option) any later version.
   
   xtb is distributed in the hope that it will be useful,
   but WITHOUT ANY WARRANTY; without even the implied warranty of
   MERCHANTABILITY or FITNESS FOR A PARTICULAR PURPOSE.  See the
   GNU Lesser General Public License for more details.
   
   Cite this work as:
   * C. Bannwarth, E. Caldeweyher, S. Ehlert, A. Hansen, P. Pracht,
     J. Seibert, S. Spicher, S. Grimme, WIREs Comput. Mol. Sci., 2020, 11,
     e01493. DOI: 10.1002/wcms.1493
   
   for GFN2-xTB:
   * C. Bannwarth, S. Ehlert and S. Grimme., J. Chem. Theory Comput., 2019,
     15, 1652-1671. DOI: 10.1021/acs.jctc.8b01176
   for GFN1-xTB:
   * S. Grimme, C. Bannwarth, P. Shushkov, J. Chem. Theory Comput., 2017,
     13, 1989-2009. DOI: 10.1021/acs.jctc.7b00118
   for GFN0-xTB:
   * P. Pracht, E. Caldeweyher, S. Ehlert, S. Grimme, ChemRxiv, 2019, preprint.
     DOI: 10.26434/chemrxiv.8326202.v1
   for GFN-FF:
   * S. Spicher and S. Grimme, Angew. Chem. Int. Ed., 2020, 59, 15665-15673.
     DOI: 10.1002/anie.202004239
   
   for ALPB and GBSA implicit solvation:
   * S. Ehlert, M. Stahn, S. Spicher, S. Grimme, J. Chem. Theory Comput.,
     2021, 17, 4250-4261. DOI: 10.1021/acs.jctc.1c00471
   
   for ddCOSMO and CPCM-X implicit solvation:
   * M. Stahn, S. Ehlert, S. Grimme, J. Phys. Chem. A,
     2023, XX, XXXX-XXXX. DOI: 10.1021/acs.jpca.3c04382
   
   for DFT-D4:
   * E. Caldeweyher, C. Bannwarth and S. Grimme, J. Chem. Phys., 2017,
     147, 034112. DOI: 10.1063/1.4993215
   * E. Caldeweyher, S. Ehlert, A. Hansen, H. Neugebauer, S. Spicher,
     C. Bannwarth and S. Grimme, J. Chem. Phys., 2019, 150, 154122.
     DOI: 10.1063/1.5090222
   * E. Caldeweyher, J.-M. Mewes, S. Ehlert and S. Grimme, Phys. Chem. Chem. Phys.
     2020, 22, 8499-8512. DOI: 10.1039/D0CP00502A
   
   for sTDA-xTB:
   * S. Grimme and C. Bannwarth, J. Chem. Phys., 2016, 145, 054103.
     DOI: 10.1063/1.4959605
   
   in the mass-spec context:
   * V. Asgeirsson, C. Bauer and S. Grimme, Chem. Sci., 2017, 8, 4879.
     DOI: 10.1039/c7sc00601b
   * J. Koopman and S. Grimme, ACS Omega 2019, 4, 12, 15120-15133.
     DOI: 10.1021/acsomega.9b02011
   
   for metadynamics refer to:
   * S. Grimme, J. Chem. Theory Comput., 2019, 155, 2847-2862
     DOI: 10.1021/acs.jctc.9b00143
   
   for SPH calculations refer to:
   * S. Spicher and S. Grimme, J. Chem. Theory Comput., 2021, 17, 1701-1714
     DOI: 10.1021/acs.jctc.0c01306
   
   for ONIOM refer to:
   * C. Plett, A. Katbashev, S. Ehlert, S. Grimme, M. Bursch,
     Phys. Chem. Chem. Phys., 2023, 25, 17860-17868. DOI: 10.1039/D3CP02178E
   
   for DIPRO refer to:
   * J. Kohn, N. Gildemeister, S. Grimme, D. Fazzi, A. Hansen,
     J. Chem. Phys., 2023, just accepted.
   
   for PTB refer to:
   * S. Grimme, M. Mueller, A. Hansen, J. Chem. Phys., 2023, 158, 124111.
     DOI: 10.1063/5.0137838
   
   with help from (in alphabetical order)
   P. Atkinson, C. Bannwarth, F. Bohle, G. Brandenburg, E. Caldeweyher
   M. Checinski, S. Dohm, S. Ehlert, S. Ehrlich, I. Gerasimov, C. Hölzer
   A. Katbashev, J. Kohn, J. Koopman, C. Lavigne, S. Lehtola, F. März, M. Müller,
   F. Musil, H. Neugebauer, J. Pisarek, C. Plett, P. Pracht, F. Pultar,
   J. Seibert, P. Shushkov, S. Spicher, M. Stahn, M. Steiner, T. Strunk,
   J. Stückrath, T. Rose, and J. Unsleber
   
 * started run on 2024/12/16 at 17:20:31.773     
   ID    Z sym.   atoms
    1    6 C      1-3, 5-7, 11-16, 18-38, 40
    2    7 N      4, 17, 39
    3   15 P      8
    4   34 Se     9
    5   16 S      10
    6    1 H      41-77

           -------------------------------------------------
          |                Calculation Setup                |
           -------------------------------------------------

          program call               : xtb --gfn2 --opt extreme -P 8 --charge 1 molecule.xyz
          hostname                   : node05
          coordinate file            : molecule.xyz
          omp threads                :                     8


           -------------------------------------------------
          |                 G F N 2 - x T B                 |
           -------------------------------------------------

        Reference                      10.1021/acs.jctc.8b01176
      * Hamiltonian:
        H0-scaling (s, p, d)           1.850000    2.230000    2.230000
        zeta-weighting                 0.500000
      * Dispersion:
        s8                             2.700000
        a1                             0.520000
        a2                             5.000000
        s9                             5.000000
      * Repulsion:
        kExp                           1.500000    1.000000
        rExp                           1.000000
      * Coulomb:
        alpha                          2.000000
        third order                    shell-resolved
        anisotropic                    true
        a3                             3.000000
        a5                             4.000000
        cn-shift                       1.200000
        cn-exp                         4.000000
        max-rad                        5.000000


          ...................................................
          :                      SETUP                      :
          :.................................................:
          :  # basis functions                 215          :
          :  # atomic orbitals                 212          :
          :  # shells                          120          :
          :  # electrons                       204          :
          :  max. iterations                   250          :
          :  Hamiltonian                  GFN2-xTB          :
          :  restarted?                      false          :
          :  GBSA solvation                  false          :
          :  PC potential                    false          :
          :  electronic temp.          300.0000000     K    :
          :  accuracy                    1.0000000          :
          :  -> integral cutoff          0.2500000E+02      :
          :  -> integral neglect         0.1000000E-07      :
          :  -> SCF convergence          0.1000000E-05 Eh   :
          :  -> wf. convergence          0.1000000E-03 e    :
          :  Broyden damping             0.4000000          :
          :  net charge                          1          :
          :  unpaired electrons                  0          :
          ...................................................

 iter      E             dE          RMSdq      gap      omega  full diag
   1   -110.5122079 -0.110512E+03  0.477E+00    1.91       0.0  T
   2   -110.6722617 -0.160054E+00  0.283E+00    2.59       1.0  T
   3   -110.6728204 -0.558753E-03  0.134E+00    2.50       1.0  T
   4   -110.6770282 -0.420776E-02  0.637E-01    2.27       1.0  T
   5   -110.6950235 -0.179953E-01  0.334E-01    2.40       1.0  T
   6   -110.7003416 -0.531808E-02  0.144E-01    2.37       1.0  T
   7   -110.7011940 -0.852425E-03  0.861E-02    2.38       1.0  T
   8   -110.7013776 -0.183617E-03  0.516E-02    2.38       1.0  T
   9   -110.7013925 -0.148488E-04  0.381E-02    2.38       1.0  T
  10   -110.7014005 -0.807413E-05  0.146E-02    2.38       1.0  T
  11   -110.7014050 -0.443768E-05  0.874E-03    2.38       1.3  T
  12   -110.7014057 -0.677983E-06  0.427E-03    2.38       2.7  T
  13   -110.7014059 -0.281668E-06  0.166E-03    2.38       6.9  T
  14   -110.7014060 -0.130295E-07  0.106E-03    2.38      10.7  T
  15   -110.7014060 -0.326903E-07  0.430E-04    2.38      26.5  T
  16   -110.7014060 -0.110143E-08  0.234E-04    2.38      48.7  T

   *** convergence criteria satisfied after 16 iterations ***

         #    Occupation            Energy/Eh            Energy/eV
      -------------------------------------------------------------
         1        2.0000           -0.9219499             -25.0875
       ...           ...                  ...                  ...
        96        2.0000           -0.5001879             -13.6108
        97        2.0000           -0.4930996             -13.4179
        98        2.0000           -0.4859384             -13.2231
        99        2.0000           -0.4820265             -13.1166
       100        2.0000           -0.4797606             -13.0549
       101        2.0000           -0.4550357             -12.3822
       102        2.0000           -0.4544400             -12.3659 (HOMO)
       103                         -0.3669582              -9.9854 (LUMO)
       104                         -0.3531288              -9.6091
       105                         -0.3473833              -9.4528
       106                         -0.3380257              -9.1981
       107                         -0.3344462              -9.1007
       ...                                ...                  ...
       212                          3.0631829              83.3534
      -------------------------------------------------------------
                  HL-Gap            0.0874818 Eh            2.3805 eV
             Fermi-level           -0.4106991 Eh          -11.1757 eV

 SCC (total)                   0 d,  0 h,  0 min,  2.795 sec
 SCC setup                      ...        0 min,  0.009 sec (  0.325%)
 Dispersion                     ...        0 min,  0.019 sec (  0.695%)
 classical contributions        ...        0 min,  0.009 sec (  0.316%)
 integral evaluation            ...        0 min,  0.028 sec (  1.006%)
 iterations                     ...        0 min,  2.556 sec ( 91.445%)
 molecular gradient             ...        0 min,  0.169 sec (  6.030%)
 printout                       ...        0 min,  0.005 sec (  0.181%)

         :::::::::::::::::::::::::::::::::::::::::::::::::::::
         ::                     SUMMARY                     ::
         :::::::::::::::::::::::::::::::::::::::::::::::::::::
         :: total energy            -108.780618273051 Eh    ::
         :: gradient norm              0.694630251506 Eh/a0 ::
         :: HOMO-LUMO gap              2.380501342328 eV    ::
         ::.................................................::
         :: SCC energy              -110.697470975413 Eh    ::
         :: -> isotropic ES            0.077194614876 Eh    ::
         :: -> anisotropic ES          0.005264224919 Eh    ::
         :: -> anisotropic XC          0.063069049473 Eh    ::
         :: -> dispersion             -0.119246359175 Eh    ::
         :: repulsion energy           1.916852702363 Eh    ::
         :: add. restraining           0.000000000000 Eh    ::
         :: total charge               1.000000000000 e     ::
         :::::::::::::::::::::::::::::::::::::::::::::::::::::

      ----------------------------------------------------------- 
     |                   =====================                   |
     |                        A N C O P T                        |
     |                   =====================                   |
     |               Approximate Normal Coordinate               |
     |                Rational Function Optimizer                |
      ----------------------------------------------------------- 
      ----------------------------------------------------------- 
     |                   =====================                   |
     |                        A N C O P T                        |
     |                   =====================                   |
     |               Approximate Normal Coordinate               |
     |                Rational Function Optimizer                |
      ----------------------------------------------------------- 

          ...................................................
          :                      SETUP                      :
          :.................................................:
          :   optimization level           extreme          :
          :   max. optcycles                  1540          :
          :   ANC micro-cycles                  20          :
          :   degrees of freedom               225          :
          :.................................................:
          :   RF solver                   davidson          :
          :   write xtbopt.log                true          :
          :   linear?                        false          :
          :   energy convergence         0.5000000E-07 Eh   :
          :   grad. convergence          0.5000000E-04 Eh/α :
          :   maxmium RF displ.          1.0000000          :
          :   Hlow (freq-cutoff)         0.1000000E-01      :
          :   Hmax (freq-cutoff)         5.0000000          :
          :   S6 in model hess.         20.0000000          :
          ...................................................

generating ANC from exact Hessian ...
Using Lindh-Hessian (1995)
 Shifting diagonal of input Hessian by    9.8923827139830982E-003
 Lowest  eigenvalues of input Hessian
    0.000000    0.000000    0.000000    0.000000    0.000000    0.000000
    0.010000    0.010060    0.010099    0.010222    0.010390    0.010551
    0.010790    0.011245    0.011522    0.011763    0.011806    0.012162
 Highest eigenvalues
    2.035230    2.058145    2.116599    2.135785    2.224422    2.246750


........................................................................
.............................. CYCLE    1 ..............................
........................................................................

 iter      E             dE          RMSdq      gap      omega  full diag
   1   -110.7014060 -0.110701E+03  0.910E-05    2.38       0.0  T
   2   -110.7014060 -0.488285E-10  0.626E-05    2.38     181.9  T
   3   -110.7014060 -0.786571E-10  0.397E-05    2.38     287.2  T
     SCC iter.                  ...        0 min,  0.204 sec
     gradient                   ...        0 min,  0.140 sec
 * total energy  :  -108.7806183 Eh     change       -0.1455419E-08 Eh
   gradient norm :     0.6946280 Eh/α   predicted     0.0000000E+00 (-100.00%)
   displ. norm   :     0.6097407 α      lambda       -0.3928868E+00
   maximum displ.:     0.1952328 α      in ANC's #189, #155, #149, ...

........................................................................
.............................. CYCLE    2 ..............................
........................................................................

 iter      E             dE          RMSdq      gap      omega  full diag
   1   -110.8118143 -0.110812E+03  0.114E+00    2.02       0.0  T
   2   -110.8150657 -0.325131E-02  0.558E-01    2.26       1.0  T
   3   -110.8150672 -0.155958E-05  0.212E-01    2.37       1.0  T
   4   -110.8150862 -0.189873E-04  0.106E-01    2.39       1.0  T
   5   -110.8154777 -0.391468E-03  0.548E-02    2.40       1.0  T
   6   -110.8156065 -0.128869E-03  0.317E-02    2.38       1.0  T
   7   -110.8156281 -0.216070E-04  0.192E-02    2.39       1.0  T
   8   -110.8156349 -0.671867E-05  0.116E-02    2.38       1.0  T
   9   -110.8156358 -0.902963E-06  0.588E-03    2.38       1.9  T
  10   -110.8156364 -0.601028E-06  0.213E-03    2.38       5.3  T
  11   -110.8156364 -0.461457E-07  0.119E-03    2.38       9.6  T
  12   -110.8156364 -0.307151E-07  0.587E-04    2.38      19.4  T
  13   -110.8156364 -0.295559E-08  0.304E-04    2.38      37.5  T
     SCC iter.                  ...        0 min,  1.321 sec
     gradient                   ...        0 min,  0.169 sec
 * total energy  :  -108.9931175 Eh     change       -0.2124992E+00 Eh
   gradient norm :     0.1909363 Eh/α   predicted    -0.2694808E+00 (  26.81%)
   displ. norm   :     0.5721296 α      lambda       -0.7669879E-01
   maximum displ.:     0.1387280 α      in ANC's #38, #50, #75, ...

........................................................................
.............................. CYCLE    3 ..............................
........................................................................

 iter      E             dE          RMSdq      gap      omega  full diag
   1   -110.8545978 -0.110855E+03  0.468E-01    2.33       0.0  T
   2   -110.8549346 -0.336823E-03  0.257E-01    2.39       1.0  T
   3   -110.8543706  0.564020E-03  0.112E-01    2.42       1.0  T
   4   -110.8549805 -0.609903E-03  0.608E-02    2.41       1.0  T
   5   -110.8550856 -0.105036E-03  0.363E-02    2.42       1.0  T
   6   -110.8551204 -0.348432E-04  0.218E-02    2.41       1.0  T
   7   -110.8551228 -0.239930E-05  0.119E-02    2.41       1.0  T
   8   -110.8551251 -0.231851E-05  0.569E-03    2.41       2.0  T
   9   -110.8551254 -0.299865E-06  0.273E-03    2.41       4.2  T
  10   -110.8551255 -0.921015E-07  0.145E-03    2.41       7.9  T
  11   -110.8551256 -0.304327E-07  0.719E-04    2.41      15.9  T
  12   -110.8551256 -0.853753E-08  0.310E-04    2.41      36.7  T
     SCC iter.                  ...        0 min,  1.094 sec
     gradient                   ...        0 min,  0.112 sec
 * total energy  :  -109.0511769 Eh     change       -0.5805937E-01 Eh
   gradient norm :     0.0892335 Eh/α   predicted    -0.5090326E-01 ( -12.33%)
   displ. norm   :     0.5974938 α      lambda       -0.3863631E-01
   maximum displ.:     0.1909255 α      in ANC's #50, #38, #22, ...

........................................................................
.............................. CYCLE    4 ..............................
........................................................................

 iter      E             dE          RMSdq      gap      omega  full diag
   1   -110.8644560 -0.110864E+03  0.420E-01    2.19       0.0  T
   2   -110.8647569 -0.300931E-03  0.229E-01    2.26       1.0  T
   3   -110.8646245  0.132419E-03  0.824E-02    2.30       1.0  T
   4   -110.8647924 -0.167933E-03  0.433E-02    2.30       1.0  T
   5   -110.8648103 -0.178627E-04  0.289E-02    2.30       1.0  T
   6   -110.8648447 -0.344253E-04  0.169E-02    2.29       1.0  T
   7   -110.8648461 -0.137099E-05  0.963E-03    2.29       1.2  T
   8   -110.8648485 -0.241506E-05  0.447E-03    2.29       2.6  T
   9   -110.8648486 -0.174857E-06  0.205E-03    2.29       5.6  T
  10   -110.8648487 -0.347778E-07  0.115E-03    2.29       9.9  T
  11   -110.8648487 -0.189431E-07  0.560E-04    2.29      20.4  T
  12   -110.8648487 -0.441059E-08  0.273E-04    2.29      41.7  T
     SCC iter.                  ...        0 min,  1.587 sec
     gradient                   ...        0 min,  0.112 sec
 * total energy  :  -109.0788390 Eh     change       -0.2766215E-01 Eh
   gradient norm :     0.0363250 Eh/α   predicted    -0.2621476E-01 (  -5.23%)
   displ. norm   :     0.5841504 α      lambda       -0.1568601E-01
   maximum displ.:     0.2121227 α      in ANC's #38, #22, #50, ...

........................................................................
.............................. CYCLE    5 ..............................
........................................................................

 iter      E             dE          RMSdq      gap      omega  full diag
   1   -110.8599582 -0.110860E+03  0.277E-01    2.12       0.0  T
   2   -110.8600714 -0.113232E-03  0.160E-01    2.16       1.0  T
   3   -110.8599919  0.795101E-04  0.534E-02    2.18       1.0  T
   4   -110.8600894 -0.974902E-04  0.247E-02    2.18       1.0  T
   5   -110.8600960 -0.660940E-05  0.160E-02    2.18       1.0  T
   6   -110.8601034 -0.739812E-05  0.104E-02    2.18       1.1  T
   7   -110.8601047 -0.125089E-05  0.700E-03    2.18       1.6  T
   8   -110.8601054 -0.741917E-06  0.258E-03    2.18       4.4  T
   9   -110.8601055 -0.126376E-06  0.134E-03    2.18       8.5  T
  10   -110.8601056 -0.254208E-07  0.701E-04    2.18      16.3  T
  11   -110.8601056 -0.642162E-08  0.346E-04    2.18      32.9  T
     SCC iter.                  ...        0 min,  1.334 sec
     gradient                   ...        0 min,  0.143 sec
 * total energy  :  -109.0902674 Eh     change       -0.1142838E-01 Eh
   gradient norm :     0.0249367 Eh/α   predicted    -0.1051929E-01 (  -7.95%)
   displ. norm   :     0.5658753 α      lambda       -0.7390135E-02
   maximum displ.:     0.2176410 α      in ANC's #22, #38, #8, ...

........................................................................
.............................. CYCLE    6 ..............................
........................................................................

 iter      E             dE          RMSdq      gap      omega  full diag
   1   -110.8601120 -0.110860E+03  0.198E-01    2.10       0.0  T
   2   -110.8601550 -0.429209E-04  0.115E-01    2.12       1.0  T
   3   -110.8601134  0.416169E-04  0.367E-02    2.12       1.0  T
   4   -110.8601600 -0.466815E-04  0.163E-02    2.12       1.0  T
   5   -110.8601674 -0.739152E-05  0.889E-03    2.12       1.3  T
   6   -110.8601692 -0.174327E-05  0.583E-03    2.12       2.0  T
   7   -110.8601696 -0.468998E-06  0.415E-03    2.12       2.7  T
   8   -110.8601697 -0.107633E-06  0.225E-03    2.12       5.1  T
   9   -110.8601698 -0.104625E-06  0.865E-04    2.12      13.2  T
  10   -110.8601699 -0.154971E-07  0.421E-04    2.12      27.1  T
     SCC iter.                  ...        0 min,  1.345 sec
     gradient                   ...        0 min,  0.171 sec
 * total energy  :  -109.0958050 Eh     change       -0.5537647E-02 Eh
   gradient norm :     0.0204100 Eh/α   predicted    -0.4878296E-02 ( -11.91%)
   displ. norm   :     0.5790666 α      lambda       -0.4413398E-02
   maximum displ.:     0.2119748 α      in ANC's #8, #14, #22, ...

........................................................................
.............................. CYCLE    7 ..............................
........................................................................

 iter      E             dE          RMSdq      gap      omega  full diag
   1   -110.8637364 -0.110864E+03  0.152E-01    2.09       0.0  T
   2   -110.8637549 -0.185885E-04  0.851E-02    2.09       1.0  T
   3   -110.8637372  0.177393E-04  0.245E-02    2.09       1.0  T
   4   -110.8637524 -0.151567E-04  0.126E-02    2.09       1.0  T
   5   -110.8637603 -0.790938E-05  0.501E-03    2.09       2.3  T
   6   -110.8637608 -0.496677E-06  0.328E-03    2.09       3.5  T
   7   -110.8637610 -0.269232E-06  0.212E-03    2.09       5.4  T
   8   -110.8637611 -0.230479E-07  0.135E-03    2.09       8.4  T
   9   -110.8637611 -0.224369E-07  0.576E-04    2.09      19.8  T
  10   -110.8637611 -0.783257E-08  0.240E-04    2.09      47.4  T
     SCC iter.                  ...        0 min,  1.472 sec
     gradient                   ...        0 min,  0.112 sec
 * total energy  :  -109.0992554 Eh     change       -0.3450372E-02 Eh
   gradient norm :     0.0148500 Eh/α   predicted    -0.2946652E-02 ( -14.60%)
   displ. norm   :     0.6248592 α      lambda       -0.3300442E-02
   maximum displ.:     0.2612256 α      in ANC's #14, #8, #21, ...

........................................................................
.............................. CYCLE    8 ..............................
........................................................................

 iter      E             dE          RMSdq      gap      omega  full diag
   1   -110.8694581 -0.110869E+03  0.128E-01    2.06       0.0  T
   2   -110.8694695 -0.114540E-04  0.726E-02    2.06       1.0  T
   3   -110.8694581  0.114781E-04  0.175E-02    2.06       1.0  T
   4   -110.8694676 -0.954072E-05  0.897E-03    2.06       1.3  T
   5   -110.8694723 -0.469462E-05  0.319E-03    2.06       3.6  T
   6   -110.8694726 -0.327248E-06  0.188E-03    2.06       6.1  T
   7   -110.8694727 -0.123717E-06  0.113E-03    2.06      10.1  T
   8   -110.8694728 -0.156349E-07  0.771E-04    2.06      14.8  T
   9   -110.8694728 -0.135729E-08  0.387E-04    2.06      29.5  T
     SCC iter.                  ...        0 min,  1.041 sec
     gradient                   ...        0 min,  0.115 sec
 * total energy  :  -109.1019357 Eh     change       -0.2680239E-02 Eh
   gradient norm :     0.0116507 Eh/α   predicted    -0.2294550E-02 ( -14.39%)
   displ. norm   :     0.6860421 α      lambda       -0.2828274E-02
   maximum displ.:     0.3042647 α      in ANC's #14, #8, #21, ...

........................................................................
.............................. CYCLE    9 ..............................
........................................................................

 iter      E             dE          RMSdq      gap      omega  full diag
   1   -110.8737851 -0.110874E+03  0.127E-01    2.04       0.0  T
   2   -110.8737929 -0.774702E-05  0.729E-02    2.04       1.0  T
   3   -110.8737805  0.123497E-04  0.161E-02    2.04       1.0  T
   4   -110.8737923 -0.117684E-04  0.727E-03    2.04       1.6  T
   5   -110.8737952 -0.285212E-05  0.292E-03    2.04       3.9  T
   6   -110.8737956 -0.457119E-06  0.138E-03    2.04       8.2  T
   7   -110.8737957 -0.826620E-07  0.691E-04    2.04      16.5  T
   8   -110.8737957 -0.726763E-08  0.436E-04    2.04      26.1  T
     SCC iter.                  ...        0 min,  1.451 sec
     gradient                   ...        0 min,  0.138 sec
 * total energy  :  -109.1043187 Eh     change       -0.2383071E-02 Eh
   gradient norm :     0.0127420 Eh/α   predicted    -0.2079708E-02 ( -12.73%)
   displ. norm   :     0.7472604 α      lambda       -0.2695986E-02
   maximum displ.:     0.3329978 α      in ANC's #14, #8, #5, ...

........................................................................
.............................. CYCLE   10 ..............................
........................................................................

 iter      E             dE          RMSdq      gap      omega  full diag
   1   -110.8780734 -0.110878E+03  0.130E-01    2.03       0.0  T
   2   -110.8780799 -0.652646E-05  0.756E-02    2.04       1.0  T
   3   -110.8780682  0.116801E-04  0.150E-02    2.04       1.0  T
   4   -110.8780815 -0.132575E-04  0.442E-03    2.04       2.6  T
   5   -110.8780822 -0.741177E-06  0.239E-03    2.04       4.8  T
   6   -110.8780825 -0.257619E-06  0.105E-03    2.04      10.8  T
   7   -110.8780825 -0.510010E-07  0.437E-04    2.04      26.1  T
   8   -110.8780826 -0.430799E-08  0.172E-04    2.04      66.4  T
     SCC iter.                  ...        0 min,  1.032 sec
     gradient                   ...        0 min,  0.121 sec
 * total energy  :  -109.1066692 Eh     change       -0.2350425E-02 Eh
   gradient norm :     0.0141497 Eh/α   predicted    -0.2100716E-02 ( -10.62%)
   displ. norm   :     0.7862773 α      lambda       -0.2704866E-02
   maximum displ.:     0.3381996 α      in ANC's #14, #8, #5, ...

........................................................................
.............................. CYCLE   11 ..............................
........................................................................

 iter      E             dE          RMSdq      gap      omega  full diag
   1   -110.8805162 -0.110881E+03  0.142E-01    2.07       0.0  T
   2   -110.8805282 -0.120121E-04  0.826E-02    2.07       1.0  T
   3   -110.8805131  0.150811E-04  0.195E-02    2.08       1.0  T
   4   -110.8805307 -0.175974E-04  0.492E-03    2.08       2.3  T
   5   -110.8805308 -0.105596E-06  0.347E-03    2.08       3.3  T
   6   -110.8805317 -0.876573E-06  0.121E-03    2.08       9.4  T
   7   -110.8805318 -0.453706E-07  0.584E-04    2.08      19.5  T
   8   -110.8805318 -0.956616E-08  0.272E-04    2.08      42.0  T
     SCC iter.                  ...        0 min,  0.705 sec
     gradient                   ...        0 min,  0.111 sec
 * total energy  :  -109.1090634 Eh     change       -0.2394266E-02 Eh
   gradient norm :     0.0146683 Eh/α   predicted    -0.2188551E-02 (  -8.59%)
   displ. norm   :     0.7888503 α      lambda       -0.2673293E-02
   maximum displ.:     0.3256381 α      in ANC's #14, #8, #10, ...

........................................................................
.............................. CYCLE   12 ..............................
........................................................................

 iter      E             dE          RMSdq      gap      omega  full diag
   1   -110.8836951 -0.110884E+03  0.147E-01    2.13       0.0  T
   2   -110.8837106 -0.155426E-04  0.859E-02    2.13       1.0  T
   3   -110.8836996  0.110175E-04  0.198E-02    2.13       1.0  T
   4   -110.8837131 -0.135369E-04  0.543E-03    2.13       2.1  T
   5   -110.8837130  0.171578E-06  0.378E-03    2.13       3.0  T
   6   -110.8837139 -0.984932E-06  0.164E-03    2.13       6.9  T
   7   -110.8837140 -0.730688E-07  0.807E-04    2.13      14.1  T
   8   -110.8837140 -0.128381E-07  0.484E-04    2.13      23.5  T
     SCC iter.                  ...        0 min,  1.333 sec
     gradient                   ...        0 min,  0.113 sec
 * total energy  :  -109.1113957 Eh     change       -0.2332323E-02 Eh
   gradient norm :     0.0137017 Eh/α   predicted    -0.2168423E-02 (  -7.03%)
   displ. norm   :     0.7765913 α      lambda       -0.2455215E-02
   maximum displ.:     0.3162732 α      in ANC's #14, #8, #10, ...

........................................................................
.............................. CYCLE   13 ..............................
........................................................................

 iter      E             dE          RMSdq      gap      omega  full diag
   1   -110.8840395 -0.110884E+03  0.153E-01    2.19       0.0  T
   2   -110.8840543 -0.148152E-04  0.877E-02    2.20       1.0  T
   3   -110.8840461  0.825352E-05  0.194E-02    2.20       1.0  T
   4   -110.8840562 -0.100849E-04  0.632E-03    2.20       1.8  T
   5   -110.8840564 -0.257266E-06  0.369E-03    2.20       3.1  T
   6   -110.8840573 -0.846598E-06  0.175E-03    2.20       6.5  T
   7   -110.8840574 -0.113932E-06  0.817E-04    2.20      13.9  T
   8   -110.8840574 -0.109598E-07  0.509E-04    2.20      22.4  T
     SCC iter.                  ...        0 min,  1.026 sec
     gradient                   ...        0 min,  0.161 sec
 * total energy  :  -109.1135372 Eh     change       -0.2141462E-02 Eh
   gradient norm :     0.0149108 Eh/α   predicted    -0.1967976E-02 (  -8.10%)
   displ. norm   :     0.7450664 α      lambda       -0.2414900E-02
   maximum displ.:     0.3032088 α      in ANC's #8, #10, #14, ...

........................................................................
.............................. CYCLE   14 ..............................
........................................................................

 iter      E             dE          RMSdq      gap      omega  full diag
   1   -110.8919143 -0.110892E+03  0.160E-01    2.28       0.0  T
   2   -110.8919276 -0.133042E-04  0.917E-02    2.28       1.0  T
   3   -110.8919234  0.420247E-05  0.158E-02    2.28       1.0  T
   4   -110.8919272 -0.377701E-05  0.802E-03    2.28       1.4  T
   5   -110.8919293 -0.216467E-05  0.402E-03    2.28       2.8  T
   6   -110.8919302 -0.894706E-06  0.198E-03    2.28       5.8  T
   7   -110.8919304 -0.151715E-06  0.104E-03    2.28      10.9  T
   8   -110.8919304 -0.108016E-07  0.616E-04    2.28      18.5  T
   9   -110.8919304  0.296069E-09  0.259E-04    2.28      44.0  T
     SCC iter.                  ...        0 min,  1.335 sec
     gradient                   ...        0 min,  0.126 sec
 * total energy  :  -109.1154250 Eh     change       -0.1887764E-02 Eh
   gradient norm :     0.0162796 Eh/α   predicted    -0.1877735E-02 (  -0.53%)
   displ. norm   :     0.7978796 α      lambda       -0.2446894E-02
   maximum displ.:     0.3235420 α      in ANC's #8, #10, #14, ...

........................................................................
.............................. CYCLE   15 ..............................
........................................................................

 iter      E             dE          RMSdq      gap      omega  full diag
   1   -110.8822150 -0.110882E+03  0.157E-01    2.35       0.0  T
   2   -110.8822390 -0.240215E-04  0.889E-02    2.35       1.0  T
   3   -110.8822357  0.332215E-05  0.167E-02    2.35       1.0  T
   4   -110.8822391 -0.345178E-05  0.777E-03    2.35       1.5  T
   5   -110.8822418 -0.269008E-05  0.384E-03    2.35       3.0  T
   6   -110.8822420 -0.230570E-06  0.218E-03    2.35       5.2  T
   7   -110.8822423 -0.231214E-06  0.115E-03    2.35       9.9  T
   8   -110.8822423 -0.103629E-07  0.670E-04    2.35      17.0  T
   9   -110.8822423 -0.335447E-08  0.267E-04    2.35      42.8  T
     SCC iter.                  ...        0 min,  0.991 sec
     gradient                   ...        0 min,  0.169 sec
 * total energy  :  -109.1170706 Eh     change       -0.1645666E-02 Eh
   gradient norm :     0.0194821 Eh/α   predicted    -0.2002310E-02 (  21.67%)
   displ. norm   :     0.6243043 α      lambda       -0.1715247E-02
   maximum displ.:     0.2923962 α      in ANC's #8, #10, #14, ...

........................................................................
.............................. CYCLE   16 ..............................
........................................................................

 iter      E             dE          RMSdq      gap      omega  full diag
   1   -110.8841346 -0.110884E+03  0.116E-01    2.40       0.0  T
   2   -110.8841406 -0.600129E-05  0.667E-02    2.40       1.0  T
   3   -110.8841375  0.313584E-05  0.108E-02    2.40       1.1  T
   4   -110.8841405 -0.296498E-05  0.615E-03    2.40       1.9  T
   5   -110.8841419 -0.141221E-05  0.286E-03    2.40       4.0  T
   6   -110.8841422 -0.280432E-06  0.156E-03    2.40       7.3  T
   7   -110.8841423 -0.942949E-07  0.939E-04    2.40      12.1  T
   8   -110.8841423 -0.642234E-08  0.536E-04    2.40      21.3  T
     SCC iter.                  ...        0 min,  1.172 sec
     gradient                   ...        0 min,  0.176 sec
 * total energy  :  -109.1185077 Eh     change       -0.1437036E-02 Eh
   gradient norm :     0.0124498 Eh/α   predicted    -0.1191890E-02 ( -17.06%)
   displ. norm   :     0.6324935 α      lambda       -0.1906099E-02
   maximum displ.:     0.2787091 α      in ANC's #8, #10, #12, ...

........................................................................
.............................. CYCLE   17 ..............................
........................................................................

 iter      E             dE          RMSdq      gap      omega  full diag
   1   -110.9053645 -0.110905E+03  0.123E-01    2.43       0.0  T
   2   -110.9053832 -0.187863E-04  0.741E-02    2.43       1.0  T
   3   -110.9053702  0.130029E-04  0.205E-02    2.43       1.0  T
   4   -110.9053847 -0.144239E-04  0.867E-03    2.43       1.3  T
   5   -110.9053873 -0.260391E-05  0.423E-03    2.44       2.7  T
   6   -110.9053875 -0.203723E-06  0.218E-03    2.43       5.2  T
   7   -110.9053876 -0.131380E-06  0.159E-03    2.43       7.2  T
   8   -110.9053877 -0.541147E-07  0.850E-04    2.43      13.4  T
   9   -110.9053877 -0.708819E-08  0.343E-04    2.43      33.2  T
     SCC iter.                  ...        0 min,  1.036 sec
     gradient                   ...        0 min,  0.143 sec
 * total energy  :  -109.1195914 Eh     change       -0.1083707E-02 Eh
   gradient norm :     0.0139937 Eh/α   predicted    -0.1334318E-02 (  23.13%)
   displ. norm   :     0.7359165 α      lambda       -0.1644866E-02
   maximum displ.:     0.3409082 α      in ANC's #8, #10, #14, ...

........................................................................
.............................. CYCLE   18 ..............................
........................................................................

 iter      E             dE          RMSdq      gap      omega  full diag
   1   -110.8927101 -0.110893E+03  0.131E-01    2.45       0.0  T
   2   -110.8927243 -0.141352E-04  0.760E-02    2.45       1.0  T
   3   -110.8927207  0.352102E-05  0.134E-02    2.45       1.0  T
   4   -110.8927240 -0.323757E-05  0.682E-03    2.45       1.7  T
   5   -110.8927261 -0.214500E-05  0.363E-03    2.45       3.1  T
   6   -110.8927267 -0.554014E-06  0.199E-03    2.45       5.7  T
   7   -110.8927268 -0.128653E-06  0.109E-03    2.45      10.5  T
   8   -110.8927268 -0.665399E-08  0.711E-04    2.45      16.0  T
   9   -110.8927268 -0.809877E-09  0.354E-04    2.45      32.2  T
     SCC iter.                  ...        0 min,  1.015 sec
     gradient                   ...        0 min,  0.119 sec
 * total energy  :  -109.1206275 Eh     change       -0.1036114E-02 Eh
   gradient norm :     0.0129798 Eh/α   predicted    -0.1267843E-02 (  22.37%)
   displ. norm   :     0.6312679 α      lambda       -0.1217256E-02
   maximum displ.:     0.2982157 α      in ANC's #8, #10, #14, ...

........................................................................
.............................. CYCLE   19 ..............................
........................................................................

 iter      E             dE          RMSdq      gap      omega  full diag
   1   -110.8858106 -0.110886E+03  0.120E-01    2.45       0.0  T
   2   -110.8858305 -0.198772E-04  0.689E-02    2.46       1.0  T
   3   -110.8858287  0.175587E-05  0.141E-02    2.46       1.0  T
   4   -110.8858313 -0.259891E-05  0.600E-03    2.46       1.9  T
   5   -110.8858329 -0.156065E-05  0.325E-03    2.46       3.5  T
   6   -110.8858332 -0.246940E-06  0.194E-03    2.46       5.9  T
   7   -110.8858333 -0.151994E-06  0.102E-03    2.46      11.1  T
   8   -110.8858333 -0.943396E-08  0.676E-04    2.46      16.9  T
   9   -110.8858333  0.778314E-09  0.356E-04    2.46      32.0  T
     SCC iter.                  ...        0 min,  1.512 sec
     gradient                   ...        0 min,  0.111 sec
 * total energy  :  -109.1209140 Eh     change       -0.2865131E-03 Eh
   gradient norm :     0.0209490 Eh/α   predicted    -0.8511680E-03 ( 197.08%)
   displ. norm   :     0.3204444 α      lambda       -0.1273080E-02
   maximum displ.:     0.1249711 α      in ANC's #5, #8, #4, ...

........................................................................
.............................. CYCLE   20 ..............................
........................................................................

 iter      E             dE          RMSdq      gap      omega  full diag
   1   -110.8922222 -0.110892E+03  0.607E-02    2.45       0.0  T
   2   -110.8922297 -0.757408E-05  0.356E-02    2.45       1.0  T
   3   -110.8922294  0.339708E-06  0.805E-03    2.46       1.4  T
   4   -110.8922303 -0.929886E-06  0.312E-03    2.46       3.6  T
   5   -110.8922305 -0.163761E-06  0.173E-03    2.46       6.6  T
   6   -110.8922306 -0.112821E-06  0.715E-04    2.46      15.9  T
   7   -110.8922306 -0.246700E-07  0.381E-04    2.46      29.9  T
     SCC iter.                  ...        0 min,  0.727 sec
     gradient                   ...        0 min,  0.168 sec
 * total energy  :  -109.1217469 Eh     change       -0.8329339E-03 Eh
   gradient norm :     0.0102442 Eh/α   predicted    -0.7019045E-03 ( -15.73%)
   displ. norm   :     0.4680056 α      lambda       -0.8140762E-03
   maximum displ.:     0.1861390 α      in ANC's #8, #5, #4, ...
 * RMSD in coord.:     1.1407597 α      energy gain  -0.3411287E+00 Eh

generating ANC from exact Hessian ...
Using Lindh-Hessian (1995)
 Shifting diagonal of input Hessian by    1.1869234517606434E-002
 Lowest  eigenvalues of input Hessian
    0.010000    0.011566    0.000000    0.000000    0.000000    0.000000
    0.000000    0.000000    0.011939    0.012069    0.012180    0.012219
    0.012367    0.012618    0.012642    0.012776    0.013182    0.013303
 Highest eigenvalues
    2.001065    2.016104    2.027750    2.072649    2.117101    2.129303


........................................................................
.............................. CYCLE   21 ..............................
........................................................................

 iter      E             dE          RMSdq      gap      omega  full diag
   1   -110.9019833 -0.110902E+03  0.755E-02    2.45       0.0  T
   2   -110.9019872 -0.391004E-05  0.442E-02    2.45       1.0  T
   3   -110.9019799  0.732562E-05  0.127E-02    2.46       1.0  T
   4   -110.9019865 -0.656700E-05  0.605E-03    2.45       1.9  T
   5   -110.9019887 -0.217743E-05  0.262E-03    2.45       4.3  T
   6   -110.9019889 -0.271992E-06  0.130E-03    2.45       8.8  T
   7   -110.9019890 -0.574382E-07  0.737E-04    2.45      15.5  T
   8   -110.9019890 -0.683249E-08  0.458E-04    2.45      24.9  T
     SCC iter.                  ...        0 min,  1.070 sec
     gradient                   ...        0 min,  0.168 sec
 * total energy  :  -109.1223018 Eh     change       -0.5548705E-03 Eh
   gradient norm :     0.0101900 Eh/α   predicted     0.0000000E+00 (-100.00%)
   displ. norm   :     0.1220320 α      lambda       -0.4535392E-03
   maximum displ.:     0.0521821 α      in ANC's #5, #8, #12, ...

........................................................................
.............................. CYCLE   22 ..............................
........................................................................

 iter      E             dE          RMSdq      gap      omega  full diag
   1   -110.9009333 -0.110901E+03  0.589E-02    2.47       0.0  T
   2   -110.9009391 -0.576192E-05  0.321E-02    2.47       1.0  T
   3   -110.9009387  0.337386E-06  0.967E-03    2.47       1.2  T
   4   -110.9009398 -0.101979E-05  0.588E-03    2.47       1.9  T
   5   -110.9009400 -0.202851E-06  0.280E-03    2.47       4.1  T
   6   -110.9009402 -0.237527E-06  0.162E-03    2.47       7.0  T
   7   -110.9009403 -0.681698E-07  0.989E-04    2.47      11.5  T
   8   -110.9009403 -0.159990E-07  0.372E-04    2.47      30.7  T
     SCC iter.                  ...        0 min,  1.062 sec
     gradient                   ...        0 min,  0.112 sec
 * total energy  :  -109.1226081 Eh     change       -0.3062666E-03 Eh
   gradient norm :     0.0038208 Eh/α   predicted    -0.2301475E-03 ( -24.85%)
   displ. norm   :     0.2376930 α      lambda       -0.4166250E-03
   maximum displ.:     0.1155149 α      in ANC's #5, #8, #9, ...

........................................................................
.............................. CYCLE   23 ..............................
........................................................................

 iter      E             dE          RMSdq      gap      omega  full diag
   1   -110.8998657 -0.110900E+03  0.860E-02    2.47       0.0  T
   2   -110.8998721 -0.635687E-05  0.428E-02    2.46       1.0  T
   3   -110.8998714  0.671278E-06  0.934E-03    2.46       1.2  T
   4   -110.8998729 -0.145384E-05  0.556E-03    2.46       2.0  T
   5   -110.8998731 -0.194087E-06  0.227E-03    2.46       5.0  T
   6   -110.8998733 -0.189762E-06  0.925E-04    2.46      12.3  T
   7   -110.8998733 -0.143131E-07  0.531E-04    2.46      21.5  T
     SCC iter.                  ...        0 min,  0.938 sec
     gradient                   ...        0 min,  0.120 sec
 * total energy  :  -109.1227812 Eh     change       -0.1731334E-03 Eh
   gradient norm :     0.0065011 Eh/α   predicted    -0.2200872E-03 (  27.12%)
   displ. norm   :     0.3116061 α      lambda       -0.5165302E-03
   maximum displ.:     0.1597768 α      in ANC's #5, #8, #1, ...

........................................................................
.............................. CYCLE   24 ..............................
........................................................................

 iter      E             dE          RMSdq      gap      omega  full diag
   1   -110.8990237 -0.110899E+03  0.834E-02    2.45       0.0  T
   2   -110.8990291 -0.544811E-05  0.411E-02    2.45       1.0  T
   3   -110.8990280  0.112433E-05  0.112E-02    2.45       1.0  T
   4   -110.8990289 -0.907615E-06  0.594E-03    2.45       1.9  T
   5   -110.8990300 -0.107508E-05  0.269E-03    2.45       4.2  T
   6   -110.8990302 -0.241128E-06  0.138E-03    2.45       8.3  T
   7   -110.8990303 -0.955113E-07  0.603E-04    2.45      18.9  T
   8   -110.8990303 -0.111285E-07  0.316E-04    2.45      36.1  T
     SCC iter.                  ...        0 min,  1.379 sec
     gradient                   ...        0 min,  0.143 sec
 * total energy  :  -109.1231019 Eh     change       -0.3207025E-03 Eh
   gradient norm :     0.0099848 Eh/α   predicted    -0.2833490E-03 ( -11.65%)
   displ. norm   :     0.3065394 α      lambda       -0.4159872E-03
   maximum displ.:     0.1752656 α      in ANC's #5, #8, #4, ...

........................................................................
.............................. CYCLE   25 ..............................
........................................................................

 iter      E             dE          RMSdq      gap      omega  full diag
   1   -110.9000806 -0.110900E+03  0.518E-02    2.46       0.0  T
   2   -110.9000826 -0.195163E-05  0.304E-02    2.46       1.0  T
   3   -110.9000803  0.231193E-05  0.860E-03    2.46       1.3  T
   4   -110.9000812 -0.959104E-06  0.521E-03    2.46       2.2  T
   5   -110.9000832 -0.196623E-05  0.202E-03    2.46       5.7  T
   6   -110.9000832 -0.243804E-07  0.123E-03    2.46       9.3  T
   7   -110.9000833 -0.603430E-07  0.649E-04    2.46      17.6  T
   8   -110.9000833 -0.323233E-08  0.398E-04    2.46      28.6  T
     SCC iter.                  ...        0 min,  0.974 sec
     gradient                   ...        0 min,  0.124 sec
 * total energy  :  -109.1234615 Eh     change       -0.3595641E-03 Eh
   gradient norm :     0.0083519 Eh/α   predicted    -0.2275383E-03 ( -36.72%)
   displ. norm   :     0.5317357 α      lambda       -0.7060977E-03
   maximum displ.:     0.3011438 α      in ANC's #5, #8, #4, ...

........................................................................
.............................. CYCLE   26 ..............................
........................................................................

 iter      E             dE          RMSdq      gap      omega  full diag
   1   -110.9019476 -0.110902E+03  0.846E-02    2.46       0.0  T
   2   -110.9019519 -0.434867E-05  0.495E-02    2.47       1.0  T
   3   -110.9019467  0.527624E-05  0.141E-02    2.47       1.0  T
   4   -110.9019504 -0.369393E-05  0.744E-03    2.47       1.5  T
   5   -110.9019535 -0.308930E-05  0.324E-03    2.47       3.5  T
   6   -110.9019537 -0.228200E-06  0.168E-03    2.47       6.8  T
   7   -110.9019537 -0.590375E-07  0.110E-03    2.47      10.4  T
   8   -110.9019538 -0.265450E-07  0.494E-04    2.47      23.1  T
   9   -110.9019538 -0.202006E-08  0.262E-04    2.47      43.5  T
     SCC iter.                  ...        0 min,  1.168 sec
     gradient                   ...        0 min,  0.183 sec
 * total energy  :  -109.1240061 Eh     change       -0.5446065E-03 Eh
   gradient norm :     0.0051808 Eh/α   predicted    -0.4528709E-03 ( -16.84%)
   displ. norm   :     0.5764252 α      lambda       -0.4936535E-03
   maximum displ.:     0.3300818 α      in ANC's #5, #8, #4, ...

........................................................................
.............................. CYCLE   27 ..............................
........................................................................

 iter      E             dE          RMSdq      gap      omega  full diag
   1   -110.9013626 -0.110901E+03  0.922E-02    2.47       0.0  T
   2   -110.9013663 -0.366728E-05  0.519E-02    2.47       1.0  T
   3   -110.9013631  0.312213E-05  0.124E-02    2.48       1.0  T
   4   -110.9013645 -0.133271E-05  0.693E-03    2.48       1.6  T
   5   -110.9013673 -0.279583E-05  0.266E-03    2.48       4.3  T
   6   -110.9013675 -0.242895E-06  0.132E-03    2.48       8.6  T
   7   -110.9013675 -0.325984E-07  0.898E-04    2.48      12.7  T
   8   -110.9013675 -0.107985E-07  0.460E-04    2.48      24.8  T
     SCC iter.                  ...        0 min,  0.896 sec
     gradient                   ...        0 min,  0.115 sec
 * total energy  :  -109.1244042 Eh     change       -0.3980976E-03 Eh
   gradient norm :     0.0063780 Eh/α   predicted    -0.3288397E-03 ( -17.40%)
   displ. norm   :     0.5320072 α      lambda       -0.4523157E-03
   maximum displ.:     0.3130634 α      in ANC's #5, #8, #2, ...

........................................................................
.............................. CYCLE   28 ..............................
........................................................................

 iter      E             dE          RMSdq      gap      omega  full diag
   1   -110.9041124 -0.110904E+03  0.866E-02    2.48       0.0  T
   2   -110.9041159 -0.348693E-05  0.479E-02    2.49       1.0  T
   3   -110.9041143  0.158574E-05  0.104E-02    2.49       1.1  T
   4   -110.9041154 -0.104335E-05  0.546E-03    2.49       2.1  T
   5   -110.9041167 -0.132960E-05  0.182E-03    2.49       6.3  T
   6   -110.9041168 -0.142225E-06  0.879E-04    2.49      13.0  T
   7   -110.9041169 -0.225321E-07  0.576E-04    2.49      19.8  T
     SCC iter.                  ...        0 min,  0.762 sec
     gradient                   ...        0 min,  0.111 sec
 * total energy  :  -109.1247652 Eh     change       -0.3610096E-03 Eh
   gradient norm :     0.0052725 Eh/α   predicted    -0.2901691E-03 ( -19.62%)
   displ. norm   :     0.6099660 α      lambda       -0.4070464E-03
   maximum displ.:     0.3570011 α      in ANC's #5, #8, #4, ...

........................................................................
.............................. CYCLE   29 ..............................
........................................................................

 iter      E             dE          RMSdq      gap      omega  full diag
   1   -110.9025344 -0.110903E+03  0.105E-01    2.49       0.0  T
   2   -110.9025395 -0.508521E-05  0.569E-02    2.49       1.0  T
   3   -110.9025381  0.133235E-05  0.121E-02    2.50       1.0  T
   4   -110.9025389 -0.731714E-06  0.607E-03    2.49       1.9  T
   5   -110.9025406 -0.175153E-05  0.148E-03    2.50       7.7  T
   6   -110.9025407 -0.876659E-07  0.692E-04    2.49      16.5  T
   7   -110.9025407 -0.195452E-07  0.374E-04    2.50      30.5  T
     SCC iter.                  ...        0 min,  0.970 sec
     gradient                   ...        0 min,  0.144 sec
 * total energy  :  -109.1250901 Eh     change       -0.3248658E-03 Eh
   gradient norm :     0.0041373 Eh/α   predicted    -0.2792497E-03 ( -14.04%)
   displ. norm   :     0.5413222 α      lambda       -0.3823655E-03
   maximum displ.:     0.3252709 α      in ANC's #5, #8, #2, ...

........................................................................
.............................. CYCLE   30 ..............................
........................................................................

 iter      E             dE          RMSdq      gap      omega  full diag
   1   -110.9068875 -0.110907E+03  0.926E-02    2.51       0.0  T
   2   -110.9068920 -0.452476E-05  0.514E-02    2.51       1.0  T
   3   -110.9068902  0.179853E-05  0.114E-02    2.51       1.0  T
   4   -110.9068923 -0.212551E-05  0.497E-03    2.51       2.3  T
   5   -110.9068931 -0.793361E-06  0.132E-03    2.51       8.7  T
   6   -110.9068931 -0.358303E-07  0.699E-04    2.51      16.3  T
   7   -110.9068931 -0.744373E-08  0.471E-04    2.51      24.2  T
     SCC iter.                  ...        0 min,  0.689 sec
     gradient                   ...        0 min,  0.168 sec
 * total energy  :  -109.1253632 Eh     change       -0.2731521E-03 Eh
   gradient norm :     0.0052765 Eh/α   predicted    -0.2472065E-03 (  -9.50%)
   displ. norm   :     0.5862017 α      lambda       -0.2719949E-03
   maximum displ.:     0.3523625 α      in ANC's #5, #8, #2, ...

........................................................................
.............................. CYCLE   31 ..............................
........................................................................

 iter      E             dE          RMSdq      gap      omega  full diag
   1   -110.9042966 -0.110904E+03  0.982E-02    2.52       0.0  T
   2   -110.9043009 -0.431649E-05  0.550E-02    2.52       1.0  T
   3   -110.9042985  0.243179E-05  0.115E-02    2.52       1.0  T
   4   -110.9043006 -0.211750E-05  0.540E-03    2.52       2.1  T
   5   -110.9043020 -0.139382E-05  0.175E-03    2.52       6.5  T
   6   -110.9043021 -0.114052E-06  0.950E-04    2.52      12.0  T
   7   -110.9043021 -0.368397E-07  0.540E-04    2.52      21.1  T
     SCC iter.                  ...        0 min,  1.177 sec
     gradient                   ...        0 min,  0.179 sec
 * total energy  :  -109.1255754 Eh     change       -0.2121494E-03 Eh
   gradient norm :     0.0042693 Eh/α   predicted    -0.1827354E-03 ( -13.86%)
   displ. norm   :     0.4475316 α      lambda       -0.2202411E-03
   maximum displ.:     0.2728471 α      in ANC's #5, #2, #4, ...

........................................................................
.............................. CYCLE   32 ..............................
........................................................................

 iter      E             dE          RMSdq      gap      omega  full diag
   1   -110.9060433 -0.110906E+03  0.743E-02    2.53       0.0  T
   2   -110.9060454 -0.214166E-05  0.429E-02    2.53       1.0  T
   3   -110.9060431  0.234624E-05  0.889E-03    2.53       1.3  T
   4   -110.9060459 -0.286998E-05  0.320E-03    2.53       3.6  T
   5   -110.9060461 -0.200789E-06  0.136E-03    2.53       8.4  T
   6   -110.9060462 -0.531038E-07  0.751E-04    2.53      15.2  T
   7   -110.9060462 -0.135500E-07  0.502E-04    2.53      22.7  T
     SCC iter.                  ...        0 min,  0.564 sec
     gradient                   ...        0 min,  0.111 sec
 * total energy  :  -109.1257599 Eh     change       -0.1845216E-03 Eh
   gradient norm :     0.0038697 Eh/α   predicted    -0.1321772E-03 ( -28.37%)
   displ. norm   :     0.4818063 α      lambda       -0.2428913E-03
   maximum displ.:     0.2960433 α      in ANC's #5, #4, #2, ...

........................................................................
.............................. CYCLE   33 ..............................
........................................................................

 iter      E             dE          RMSdq      gap      omega  full diag
   1   -110.9078171 -0.110908E+03  0.818E-02    2.54       0.0  T
   2   -110.9078193 -0.226220E-05  0.478E-02    2.54       1.0  T
   3   -110.9078159  0.347738E-05  0.914E-03    2.54       1.2  T
   4   -110.9078201 -0.426959E-05  0.307E-03    2.54       3.7  T
   5   -110.9078202 -0.196871E-07  0.180E-03    2.54       6.3  T
   6   -110.9078203 -0.144526E-06  0.907E-04    2.54      12.6  T
   7   -110.9078203 -0.225759E-07  0.590E-04    2.54      19.3  T
     SCC iter.                  ...        0 min,  0.766 sec
     gradient                   ...        0 min,  0.121 sec
 * total energy  :  -109.1259590 Eh     change       -0.1990786E-03 Eh
   gradient norm :     0.0036331 Eh/α   predicted    -0.1496420E-03 ( -24.83%)
   displ. norm   :     0.4803103 α      lambda       -0.2201161E-03
   maximum displ.:     0.2980146 α      in ANC's #5, #4, #2, ...

........................................................................
.............................. CYCLE   34 ..............................
........................................................................

 iter      E             dE          RMSdq      gap      omega  full diag
   1   -110.9083706 -0.110908E+03  0.828E-02    2.55       0.0  T
   2   -110.9083727 -0.208235E-05  0.484E-02    2.55       1.0  T
   3   -110.9083696  0.315256E-05  0.813E-03    2.55       1.4  T
   4   -110.9083734 -0.380089E-05  0.282E-03    2.55       4.0  T
   5   -110.9083734 -0.445041E-07  0.175E-03    2.55       6.5  T
   6   -110.9083736 -0.188357E-06  0.685E-04    2.55      16.6  T
   7   -110.9083736 -0.159008E-07  0.408E-04    2.55      28.0  T
     SCC iter.                  ...        0 min,  0.621 sec
     gradient                   ...        0 min,  0.111 sec
 * total energy  :  -109.1261360 Eh     change       -0.1770644E-03 Eh
   gradient norm :     0.0035937 Eh/α   predicted    -0.1354526E-03 ( -23.50%)
   displ. norm   :     0.4254736 α      lambda       -0.1825159E-03
   maximum displ.:     0.2647978 α      in ANC's #5, #4, #2, ...

........................................................................
.............................. CYCLE   35 ..............................
........................................................................

 iter      E             dE          RMSdq      gap      omega  full diag
   1   -110.9083072 -0.110908E+03  0.746E-02    2.57       0.0  T
   2   -110.9083089 -0.169299E-05  0.429E-02    2.57       1.0  T
   3   -110.9083070  0.191727E-05  0.665E-03    2.57       1.7  T
   4   -110.9083090 -0.203143E-05  0.330E-03    2.57       3.5  T
   5   -110.9083094 -0.410915E-06  0.155E-03    2.57       7.4  T
   6   -110.9083096 -0.155749E-06  0.648E-04    2.57      17.6  T
   7   -110.9083096 -0.100378E-07  0.387E-04    2.57      29.5  T
     SCC iter.                  ...        0 min,  0.666 sec
     gradient                   ...        0 min,  0.113 sec
 * total energy  :  -109.1262789 Eh     change       -0.1428572E-03 Eh
   gradient norm :     0.0034929 Eh/α   predicted    -0.1077832E-03 ( -24.55%)
   displ. norm   :     0.3716662 α      lambda       -0.1542546E-03
   maximum displ.:     0.2318696 α      in ANC's #5, #4, #2, ...

........................................................................
.............................. CYCLE   36 ..............................
........................................................................

 iter      E             dE          RMSdq      gap      omega  full diag
   1   -110.9079743 -0.110908E+03  0.630E-02    2.57       0.0  T
   2   -110.9079756 -0.128205E-05  0.365E-02    2.57       1.0  T
   3   -110.9079743  0.127646E-05  0.531E-03    2.57       2.1  T
   4   -110.9079757 -0.138983E-05  0.255E-03    2.57       4.5  T
   5   -110.9079760 -0.246268E-06  0.118E-03    2.57       9.7  T
   6   -110.9079761 -0.868244E-07  0.456E-04    2.57      25.0  T
   7   -110.9079761 -0.738036E-08  0.244E-04    2.57      46.7  T
     SCC iter.                  ...        0 min,  0.749 sec
     gradient                   ...        0 min,  0.111 sec
 * total energy  :  -109.1263975 Eh     change       -0.1186514E-03 Eh
   gradient norm :     0.0030923 Eh/α   predicted    -0.8778264E-04 ( -26.02%)
   displ. norm   :     0.3048968 α      lambda       -0.1245984E-03
   maximum displ.:     0.1939127 α      in ANC's #5, #4, #13, ...

........................................................................
.............................. CYCLE   37 ..............................
........................................................................

 iter      E             dE          RMSdq      gap      omega  full diag
   1   -110.9072430 -0.110907E+03  0.490E-02    2.57       0.0  T
   2   -110.9072437 -0.732365E-06  0.280E-02    2.57       1.0  T
   3   -110.9072431  0.598606E-06  0.413E-03    2.57       2.8  T
   4   -110.9072437 -0.561331E-06  0.229E-03    2.57       5.0  T
   5   -110.9072440 -0.252935E-06  0.780E-04    2.57      14.6  T
   6   -110.9072440 -0.382409E-07  0.326E-04    2.57      35.0  T
     SCC iter.                  ...        0 min,  0.781 sec
     gradient                   ...        0 min,  0.143 sec
 * total energy  :  -109.1264988 Eh     change       -0.1012866E-03 Eh
   gradient norm :     0.0030454 Eh/α   predicted    -0.6809281E-04 ( -32.77%)
   displ. norm   :     0.2907081 α      lambda       -0.1210824E-03
   maximum displ.:     0.1867247 α      in ANC's #5, #4, #13, ...

........................................................................
.............................. CYCLE   38 ..............................
........................................................................

 iter      E             dE          RMSdq      gap      omega  full diag
   1   -110.9069295 -0.110907E+03  0.440E-02    2.58       0.0  T
   2   -110.9069301 -0.627071E-06  0.253E-02    2.58       1.0  T
   3   -110.9069297  0.447860E-06  0.387E-03    2.58       2.9  T
   4   -110.9069302 -0.489660E-06  0.183E-03    2.58       6.2  T
   5   -110.9069303 -0.120791E-06  0.654E-04    2.58      17.4  T
   6   -110.9069303 -0.270102E-07  0.279E-04    2.58      40.8  T
     SCC iter.                  ...        0 min,  0.888 sec
     gradient                   ...        0 min,  0.111 sec
 * total energy  :  -109.1265987 Eh     change       -0.9988175E-04 Eh
   gradient norm :     0.0032100 Eh/α   predicted    -0.6566242E-04 ( -34.26%)
   displ. norm   :     0.3254603 α      lambda       -0.1282464E-03
   maximum displ.:     0.2116087 α      in ANC's #5, #4, #13, ...

........................................................................
.............................. CYCLE   39 ..............................
........................................................................

 iter      E             dE          RMSdq      gap      omega  full diag
   1   -110.9064044 -0.110906E+03  0.481E-02    2.57       0.0  T
   2   -110.9064051 -0.731422E-06  0.278E-02    2.57       1.0  T
   3   -110.9064047  0.388894E-06  0.410E-03    2.57       2.8  T
   4   -110.9064053 -0.535072E-06  0.158E-03    2.57       7.2  T
   5   -110.9064053 -0.399020E-07  0.644E-04    2.57      17.7  T
   6   -110.9064053 -0.234272E-07  0.265E-04    2.57      43.0  T
     SCC iter.                  ...        0 min,  0.739 sec
     gradient                   ...        0 min,  0.164 sec
 * total energy  :  -109.1267009 Eh     change       -0.1022491E-03 Eh
   gradient norm :     0.0033068 Eh/α   predicted    -0.7091946E-04 ( -30.64%)
   displ. norm   :     0.3436041 α      lambda       -0.1165942E-03
   maximum displ.:     0.2263768 α      in ANC's #5, #4, #13, ...

........................................................................
.............................. CYCLE   40 ..............................
........................................................................

 iter      E             dE          RMSdq      gap      omega  full diag
   1   -110.9062832 -0.110906E+03  0.521E-02    2.58       0.0  T
   2   -110.9062841 -0.857478E-06  0.298E-02    2.58       1.0  T
   3   -110.9062839  0.208972E-06  0.398E-03    2.58       2.9  T
   4   -110.9062842 -0.319564E-06  0.190E-03    2.58       6.0  T
   5   -110.9062843 -0.100422E-06  0.756E-04    2.58      15.1  T
   6   -110.9062843 -0.196864E-07  0.345E-04    2.58      33.0  T
     SCC iter.                  ...        0 min,  0.754 sec
     gradient                   ...        0 min,  0.116 sec
 * total energy  :  -109.1267903 Eh     change       -0.8931210E-04 Eh
   gradient norm :     0.0032303 Eh/α   predicted    -0.6518306E-04 ( -27.02%)
   displ. norm   :     0.3348466 α      lambda       -0.9920001E-04
   maximum displ.:     0.2254874 α      in ANC's #5, #4, #28, ...

........................................................................
.............................. CYCLE   41 ..............................
........................................................................

 iter      E             dE          RMSdq      gap      omega  full diag
   1   -110.9065885 -0.110907E+03  0.502E-02    2.58       0.0  T
   2   -110.9065894 -0.891825E-06  0.288E-02    2.58       1.0  T
   3   -110.9065891  0.377893E-06  0.485E-03    2.58       2.4  T
   4   -110.9065896 -0.567573E-06  0.166E-03    2.58       6.9  T
   5   -110.9065896  0.133923E-09  0.930E-04    2.58      12.3  T
   6   -110.9065897 -0.555496E-07  0.349E-04    2.58      32.6  T
     SCC iter.                  ...        0 min,  0.522 sec
     gradient                   ...        0 min,  0.111 sec
 * total energy  :  -109.1268642 Eh     change       -0.7389429E-04 Eh
   gradient norm :     0.0027244 Eh/α   predicted    -0.5516216E-04 ( -25.35%)
   displ. norm   :     0.3390163 α      lambda       -0.8947715E-04
   maximum displ.:     0.2303800 α      in ANC's #5, #4, #2, ...

........................................................................
.............................. CYCLE   42 ..............................
........................................................................

 iter      E             dE          RMSdq      gap      omega  full diag
   1   -110.9071002 -0.110907E+03  0.529E-02    2.59       0.0  T
   2   -110.9071009 -0.771439E-06  0.302E-02    2.59       1.0  T
   3   -110.9071005  0.460129E-06  0.452E-03    2.59       2.5  T
   4   -110.9071010 -0.559717E-06  0.219E-03    2.59       5.2  T
   5   -110.9071011 -0.101775E-06  0.106E-03    2.59      10.8  T
   6   -110.9071012 -0.556936E-07  0.603E-04    2.59      18.9  T
   7   -110.9071012 -0.540321E-08  0.396E-04    2.59      28.8  T
     SCC iter.                  ...        0 min,  0.992 sec
     gradient                   ...        0 min,  0.164 sec
 * total energy  :  -109.1269307 Eh     change       -0.6655229E-04 Eh
   gradient norm :     0.0026471 Eh/α   predicted    -0.4988571E-04 ( -25.04%)
   displ. norm   :     0.3429875 α      lambda       -0.8458671E-04
   maximum displ.:     0.2326504 α      in ANC's #5, #4, #2, ...
 * RMSD in coord.:     0.8715739 α      energy gain  -0.5183768E-02 Eh

generating ANC from exact Hessian ...
Using Lindh-Hessian (1995)
 Shifting diagonal of input Hessian by    1.1297048046901124E-002
 Lowest  eigenvalues of input Hessian
    0.010000    0.000000    0.000000    0.000000    0.000000    0.000000
    0.000000    0.011377    0.011418    0.011582    0.011625    0.011729
    0.011808    0.012025    0.012150    0.012346    0.012521    0.012646
 Highest eigenvalues
    2.009776    2.018546    2.025887    2.071507    2.116307    2.125478


........................................................................
.............................. CYCLE   43 ..............................
........................................................................

 iter      E             dE          RMSdq      gap      omega  full diag
   1   -110.9083114 -0.110908E+03  0.510E-02    2.60       0.0  T
   2   -110.9083122 -0.822143E-06  0.295E-02    2.60       1.0  T
   3   -110.9083118  0.445727E-06  0.498E-03    2.60       2.3  T
   4   -110.9083124 -0.653570E-06  0.179E-03    2.60       6.4  T
   5   -110.9083124  0.117282E-09  0.886E-04    2.60      12.9  T
   6   -110.9083124 -0.409858E-07  0.426E-04    2.60      26.7  T
     SCC iter.                  ...        0 min,  0.824 sec
     gradient                   ...        0 min,  0.143 sec
 * total energy  :  -109.1269936 Eh     change       -0.6290029E-04 Eh
   gradient norm :     0.0027724 Eh/α   predicted     0.0000000E+00 (-100.00%)
   displ. norm   :     0.0341355 α      lambda       -0.2822824E-04
   maximum displ.:     0.0104077 α      in ANC's #4, #32, #13, ...

........................................................................
.............................. CYCLE   44 ..............................
........................................................................

 iter      E             dE          RMSdq      gap      omega  full diag
   1   -110.9086585 -0.110909E+03  0.842E-03    2.60       0.0  T
   2   -110.9086586 -0.484467E-07  0.483E-03    2.60       2.4  T
   3   -110.9086585  0.325952E-07  0.108E-03    2.60      10.5  T
   4   -110.9086585 -0.262322E-07  0.689E-04    2.60      16.5  T
   5   -110.9086586 -0.184788E-07  0.327E-04    2.60      34.9  T
     SCC iter.                  ...        0 min,  0.538 sec
     gradient                   ...        0 min,  0.111 sec
 * total energy  :  -109.1270178 Eh     change       -0.2415602E-04 Eh
   gradient norm :     0.0016035 Eh/α   predicted    -0.1429557E-04 ( -40.82%)
   displ. norm   :     0.2011488 α      lambda       -0.7610791E-04
   maximum displ.:     0.0652353 α      in ANC's #4, #32, #13, ...

........................................................................
.............................. CYCLE   45 ..............................
........................................................................

 iter      E             dE          RMSdq      gap      omega  full diag
   1   -110.9094051 -0.110909E+03  0.414E-02    2.60       0.0  T
   2   -110.9094063 -0.122272E-05  0.228E-02    2.60       1.0  T
   3   -110.9094059  0.463325E-06  0.500E-03    2.60       2.3  T
   4   -110.9094064 -0.500446E-06  0.285E-03    2.60       4.0  T
   5   -110.9094066 -0.232152E-06  0.130E-03    2.60       8.7  T
   6   -110.9094067 -0.641464E-07  0.655E-04    2.60      17.4  T
   7   -110.9094067 -0.928638E-08  0.390E-04    2.60      29.2  T
     SCC iter.                  ...        0 min,  0.781 sec
     gradient                   ...        0 min,  0.168 sec
 * total energy  :  -109.1270547 Eh     change       -0.3696661E-04 Eh
   gradient norm :     0.0039544 Eh/α   predicted    -0.3873944E-04 (   4.80%)
   displ. norm   :     0.0994986 α      lambda       -0.6525535E-04
   maximum displ.:     0.0559447 α      in ANC's #1, #4, #32, ...

........................................................................
.............................. CYCLE   46 ..............................
........................................................................

 iter      E             dE          RMSdq      gap      omega  full diag
   1   -110.9092189 -0.110909E+03  0.459E-02    2.59       0.0  T
   2   -110.9092208 -0.188433E-05  0.221E-02    2.59       1.0  T
   3   -110.9092207  0.147888E-06  0.474E-03    2.59       2.4  T
   4   -110.9092211 -0.407457E-06  0.256E-03    2.59       4.5  T
   5   -110.9092212 -0.756551E-07  0.119E-03    2.59       9.6  T
   6   -110.9092212 -0.353948E-07  0.427E-04    2.59      26.7  T
   7   -110.9092212 -0.365546E-08  0.224E-04    2.59      50.8  T
     SCC iter.                  ...        0 min,  0.929 sec
     gradient                   ...        0 min,  0.143 sec
 * total energy  :  -109.1270517 Eh     change        0.2997633E-05 Eh
   gradient norm :     0.0041806 Eh/α   predicted    -0.3297493E-04 (*******%)
   displ. norm   :     0.0466437 α      lambda       -0.6540321E-04
   maximum displ.:     0.0261756 α      in ANC's #1, #11, #24, ...

........................................................................
.............................. CYCLE   47 ..............................
........................................................................

 iter      E             dE          RMSdq      gap      omega  full diag
   1   -110.9091006 -0.110909E+03  0.256E-02    2.59       0.0  T
   2   -110.9091012 -0.594716E-06  0.123E-02    2.59       1.0  T
   3   -110.9091012  0.137343E-07  0.268E-03    2.59       4.2  T
   4   -110.9091013 -0.742276E-07  0.160E-03    2.59       7.1  T
   5   -110.9091013 -0.388709E-07  0.765E-04    2.59      14.9  T
   6   -110.9091013 -0.106346E-07  0.273E-04    2.59      41.8  T
     SCC iter.                  ...        0 min,  0.806 sec
     gradient                   ...        0 min,  0.111 sec
 * total energy  :  -109.1270911 Eh     change       -0.3938413E-04 Eh
   gradient norm :     0.0017750 Eh/α   predicted    -0.3277321E-04 ( -16.79%)
   displ. norm   :     0.0573343 α      lambda       -0.1716395E-04
   maximum displ.:     0.0321540 α      in ANC's #4, #6, #3, ...

........................................................................
.............................. CYCLE   48 ..............................
........................................................................

 iter      E             dE          RMSdq      gap      omega  full diag
   1   -110.9089196 -0.110909E+03  0.159E-02    2.60       0.0  T
   2   -110.9089198 -0.210822E-06  0.783E-03    2.60       1.5  T
   3   -110.9089198  0.282185E-07  0.224E-03    2.60       5.1  T
   4   -110.9089198 -0.195613E-07  0.124E-03    2.60       9.2  T
   5   -110.9089199 -0.441197E-07  0.567E-04    2.60      20.1  T
   6   -110.9089199 -0.102424E-07  0.324E-04    2.60      35.1  T
     SCC iter.                  ...        0 min,  0.744 sec
     gradient                   ...        0 min,  0.142 sec
 * total energy  :  -109.1271072 Eh     change       -0.1606955E-04 Eh
   gradient norm :     0.0008161 Eh/α   predicted    -0.8595212E-05 ( -46.51%)
   displ. norm   :     0.1354176 α      lambda       -0.1888108E-04
   maximum displ.:     0.0809483 α      in ANC's #4, #6, #3, ...

........................................................................
.............................. CYCLE   49 ..............................
........................................................................

 iter      E             dE          RMSdq      gap      omega  full diag
   1   -110.9084561 -0.110908E+03  0.205E-02    2.59       0.0  T
   2   -110.9084564 -0.387369E-06  0.120E-02    2.59       1.0  T
   3   -110.9084563  0.146248E-06  0.311E-03    2.59       3.7  T
   4   -110.9084565 -0.194796E-06  0.125E-03    2.59       9.1  T
   5   -110.9084565 -0.111595E-07  0.788E-04    2.59      14.5  T
   6   -110.9084565 -0.241740E-07  0.365E-04    2.59      31.2  T
     SCC iter.                  ...        0 min,  0.567 sec
     gradient                   ...        0 min,  0.111 sec
 * total energy  :  -109.1271265 Eh     change       -0.1930716E-04 Eh
   gradient norm :     0.0018648 Eh/α   predicted    -0.9518181E-05 ( -50.70%)
   displ. norm   :     0.1408586 α      lambda       -0.1767838E-04
   maximum displ.:     0.0839105 α      in ANC's #4, #6, #3, ...

........................................................................
.............................. CYCLE   50 ..............................
........................................................................

 iter      E             dE          RMSdq      gap      omega  full diag
   1   -110.9085016 -0.110909E+03  0.218E-02    2.60       0.0  T
   2   -110.9085019 -0.316344E-06  0.120E-02    2.60       1.0  T
   3   -110.9085017  0.156664E-06  0.287E-03    2.60       4.0  T
   4   -110.9085018 -0.952839E-07  0.151E-03    2.60       7.5  T
   5   -110.9085019 -0.120181E-06  0.626E-04    2.60      18.2  T
   6   -110.9085020 -0.211690E-07  0.267E-04    2.60      42.7  T
     SCC iter.                  ...        0 min,  0.723 sec
     gradient                   ...        0 min,  0.169 sec
 * total energy  :  -109.1271465 Eh     change       -0.1999582E-04 Eh
   gradient norm :     0.0015508 Eh/α   predicted    -0.8921730E-05 ( -55.38%)
   displ. norm   :     0.1499687 α      lambda       -0.1755543E-04
   maximum displ.:     0.0966107 α      in ANC's #4, #6, #3, ...

........................................................................
.............................. CYCLE   51 ..............................
........................................................................

 iter      E             dE          RMSdq      gap      omega  full diag
   1   -110.9087965 -0.110909E+03  0.215E-02    2.60       0.0  T
   2   -110.9087967 -0.141821E-06  0.123E-02    2.60       1.0  T
   3   -110.9087964  0.218966E-06  0.231E-03    2.60       4.9  T
   4   -110.9087967 -0.223857E-06  0.107E-03    2.60      10.7  T
   5   -110.9087967 -0.340466E-07  0.542E-04    2.60      21.0  T
   6   -110.9087967 -0.174311E-07  0.220E-04    2.60      51.8  T
     SCC iter.                  ...        0 min,  0.893 sec
     gradient                   ...        0 min,  0.169 sec
 * total energy  :  -109.1271680 Eh     change       -0.2152728E-04 Eh
   gradient norm :     0.0008757 Eh/α   predicted    -0.8866694E-05 ( -58.81%)
   displ. norm   :     0.1478948 α      lambda       -0.1583292E-04
   maximum displ.:     0.0982024 α      in ANC's #4, #6, #5, ...

........................................................................
.............................. CYCLE   52 ..............................
........................................................................

 iter      E             dE          RMSdq      gap      omega  full diag
   1   -110.9088334 -0.110909E+03  0.214E-02    2.59       0.0  T
   2   -110.9088335 -0.910643E-07  0.122E-02    2.60       1.0  T
   3   -110.9088334  0.174215E-06  0.196E-03    2.60       5.8  T
   4   -110.9088335 -0.158384E-06  0.982E-04    2.60      11.6  T
   5   -110.9088336 -0.469389E-07  0.398E-04    2.60      28.6  T
     SCC iter.                  ...        0 min,  0.576 sec
     gradient                   ...        0 min,  0.115 sec
 * total energy  :  -109.1271878 Eh     change       -0.1980752E-04 Eh
   gradient norm :     0.0007678 Eh/α   predicted    -0.7994528E-05 ( -59.64%)
   displ. norm   :     0.1462976 α      lambda       -0.1399295E-04
   maximum displ.:     0.0979238 α      in ANC's #4, #6, #5, ...

........................................................................
.............................. CYCLE   53 ..............................
........................................................................

 iter      E             dE          RMSdq      gap      omega  full diag
   1   -110.9088030 -0.110909E+03  0.207E-02    2.59       0.0  T
   2   -110.9088031 -0.108467E-06  0.117E-02    2.59       1.0  T
   3   -110.9088030  0.112774E-06  0.194E-03    2.59       5.9  T
   4   -110.9088031 -0.125256E-06  0.813E-04    2.59      14.0  T
   5   -110.9088031 -0.218305E-07  0.306E-04    2.59      37.2  T
     SCC iter.                  ...        0 min,  0.508 sec
     gradient                   ...        0 min,  0.115 sec
 * total energy  :  -109.1272054 Eh     change       -0.1755447E-04 Eh
   gradient norm :     0.0009415 Eh/α   predicted    -0.7064782E-05 ( -59.76%)
   displ. norm   :     0.1508956 α      lambda       -0.1295216E-04
   maximum displ.:     0.1011605 α      in ANC's #4, #6, #3, ...

........................................................................
.............................. CYCLE   54 ..............................
........................................................................

 iter      E             dE          RMSdq      gap      omega  full diag
   1   -110.9088103 -0.110909E+03  0.211E-02    2.60       0.0  T
   2   -110.9088104 -0.989686E-07  0.120E-02    2.60       1.0  T
   3   -110.9088103  0.993760E-07  0.182E-03    2.60       6.2  T
   4   -110.9088104 -0.102730E-06  0.946E-04    2.60      12.0  T
   5   -110.9088105 -0.310772E-07  0.396E-04    2.60      28.8  T
     SCC iter.                  ...        0 min,  0.602 sec
     gradient                   ...        0 min,  0.169 sec
 * total energy  :  -109.1272214 Eh     change       -0.1606677E-04 Eh
   gradient norm :     0.0010930 Eh/α   predicted    -0.6545976E-05 ( -59.26%)
   displ. norm   :     0.1731939 α      lambda       -0.1494162E-04
   maximum displ.:     0.1148723 α      in ANC's #4, #3, #6, ...

........................................................................
[...]
       103                         -0.3744263             -10.1887 (LUMO)
       104                         -0.3660154              -9.9598
       105                         -0.3578842              -9.7385
       106                         -0.3504120              -9.5352
       107                         -0.3336949              -9.0803
       108                         -0.3289434              -8.9510
       109                         -0.3267626              -8.8917
       110                         -0.3202448              -8.7143
       111                         -0.2957901              -8.0489
       112                         -0.2888893              -7.8611
       113                         -0.2806429              -7.6367
       ...                                ...                  ...
       212                          1.1345819              30.8735
      -------------------------------------------------------------
                  HL-Gap            0.0963872 Eh            2.6228 eV
             Fermi-level           -0.4226199 Eh          -11.5001 eV

     #   Z          covCN         q      C6AA      α(0)
     1   6 C        3.755    -0.119    22.829     6.813
     2   6 C        3.871     0.048    19.724     6.315
     3   6 C        3.768    -0.122    22.867     6.815
     4   7 N        2.677    -0.121    23.638     7.221
     5   6 C        3.958     0.047    19.725     6.311
     6   6 C        3.753    -0.118    22.813     6.811
     7   6 C        3.753    -0.119    22.836     6.814
     8  15 P        4.545     0.225   150.630    22.047
     9  34 Se       1.888    -0.050   237.389    26.848
    10  16 S        2.027    -0.077   144.264    20.215
    11   6 C        2.972     0.040    27.094     8.538
    12   6 C        2.965    -0.035    28.863     8.812
    13   6 C        2.922    -0.023    28.582     8.767
    14   6 C        2.919    -0.024    28.601     8.770
    15   6 C        2.922    -0.023    28.581     8.767
    16   6 C        2.948    -0.031    28.768     8.797
    17   7 N        2.684    -0.120    23.610     7.217
    18   6 C        3.752    -0.033    21.215     6.568
    19   6 C        3.321     0.051    24.781     7.923
    20   6 C        2.913    -0.043    29.078     8.842
    21   6 C        2.919    -0.030    28.755     8.794
    22   6 C        2.986     0.015    27.661     8.627
    23   6 C        2.919    -0.029    28.731     8.790
    24   6 C        2.915    -0.021    28.521     8.757
    25   6 C        2.916    -0.022    28.543     8.761
    26   6 C        2.916    -0.031    28.776     8.797
    27   6 C        2.987     0.012    27.729     8.638
    28   6 C        2.979    -0.004    28.127     8.700
    29   6 C        2.977    -0.007    28.187     8.709
    30   6 C        3.070     0.054    26.726     8.477
    31   6 C        2.917    -0.047    29.173     8.857
    32   6 C        2.919    -0.032    28.810     8.802
    33   6 C        2.987     0.014    27.689     8.632
    34   6 C        2.920    -0.030    28.752     8.793
    35   6 C        2.915    -0.022    28.543     8.761
    36   6 C        2.917    -0.022    28.562     8.764
    37   6 C        2.917    -0.033    28.812     8.802
    38   6 C        2.987     0.012    27.744     8.640
    39   7 N        2.683    -0.127    23.758     7.239
    40   6 C        3.816    -0.027    21.052     6.530
    41   1 H        0.925     0.062     2.173     2.305
    42   1 H        0.925     0.055     2.264     2.353
    43   1 H        0.925     0.048     2.347     2.396
    44   1 H        0.924     0.060     2.194     2.317
    45   1 H        0.925     0.071     2.078     2.254
    46   1 H        0.925     0.066     2.133     2.284
    47   1 H        0.925     0.058     2.219     2.329
    48   1 H        0.924     0.055     2.257     2.349
    49   1 H        0.925     0.061     2.182     2.310
    50   1 H        0.925     0.049     2.337     2.391
    51   1 H        0.925     0.058     2.222     2.331
    52   1 H        0.925     0.047     2.362     2.403
    53   1 H        0.925     0.058     2.218     2.329
    54   1 H        0.925     0.059     2.214     2.327
    55   1 H        0.926     0.047     2.355     2.400
    56   1 H        0.926     0.056     2.244     2.343
    57   1 H        0.926     0.057     2.235     2.338
    58   1 H        0.926     0.055     2.258     2.350
    59   1 H        0.925     0.051     2.312     2.378
    60   1 H        0.924     0.066     2.126     2.280
    61   1 H        0.925     0.070     2.087     2.259
    62   1 H        0.924     0.056     2.245     2.343
    63   1 H        0.926     0.045     2.380     2.413
    64   1 H        0.926     0.058     2.228     2.334
    65   1 H        0.926     0.051     2.311     2.378
    66   1 H        0.926     0.053     2.282     2.362
    67   1 H        0.926     0.050     2.323     2.383
    68   1 H        0.926     0.041     2.441     2.443
    69   1 H        0.926     0.042     2.418     2.432
    70   1 H        0.926     0.054     2.268     2.355
    71   1 H        0.926     0.049     2.332     2.388
    72   1 H        0.926     0.052     2.296     2.370
    73   1 H        0.926     0.049     2.337     2.391
    74   1 H        0.926     0.038     2.472     2.458
    75   1 H        0.924     0.055     2.254     2.348
    76   1 H        0.924     0.055     2.262     2.352
    77   1 H        0.925     0.067     2.115     2.274

 Mol. C6AA /au·bohr⁶  :      81109.241893
 Mol. C8AA /au·bohr⁸  :    2272418.776526
 Mol. α(0) /au        :        457.131047


Wiberg/Mayer (AO) data.
largest (>0.10) Wiberg bond orders for each atom

 ---------------------------------------------------------------------------
     #   Z sym  total        # sym  WBO       # sym  WBO       # sym  WBO
 ---------------------------------------------------------------------------
     1   6 C    3.987 --     2 C    1.002    41 H    0.978    43 H    0.977
                            42 H    0.975
     2   6 C    3.957 --     3 C    1.008     1 C    1.002    44 H    0.958
                             4 N    0.938
     3   6 C    3.990 --     2 C    1.008    45 H    0.975    46 H    0.963
                            47 H    0.957
     4   7 N    3.445 --     8 P    1.286     2 C    0.938     5 C    0.930
     5   6 C    3.958 --     6 C    1.008     7 C    1.002    48 H    0.944
                             4 N    0.930
     6   6 C    3.990 --     5 C    1.008    50 H    0.981    51 H    0.980
                            49 H    0.979
     7   6 C    3.986 --     5 C    1.002    53 H    0.980    52 H    0.979
                            54 H    0.978
     8  15 P    5.087 --     4 N    1.286    17 N    1.240    39 N    1.232
                             9 Se   0.880
     9  34 Se   2.564 --    10 S    1.244     8 P    0.880
    10  16 S    2.418 --     9 Se   1.244    11 C    0.972
    11   6 C    3.954 --    16 C    1.404    12 C    1.401    10 S    0.972
                            14 C    0.103
    12   6 C    3.989 --    13 C    1.439    11 C    1.401    55 H    0.967
                            15 C    0.108
    13   6 C    3.987 --    14 C    1.439    12 C    1.439    56 H    0.968
                            16 C    0.110
    14   6 C    3.983 --    13 C    1.439    15 C    1.433    57 H    0.969
                            11 C    0.103
    15   6 C    3.990 --    16 C    1.443    14 C    1.433    58 H    0.967
                            12 C    0.108
    16   6 C    3.989 --    15 C    1.443    11 C    1.404    59 H    0.953
                            13 C    0.110
    17   7 N    3.428 --     8 P    1.240    18 C    0.975    19 C    0.956
    18   6 C    3.959 --    17 N    0.975    62 H    0.975    60 H    0.974
                            61 H    0.964
    19   6 C    3.952 --    28 C    1.446    20 C    1.285    17 N    0.956
    20   6 C    3.988 --    21 C    1.545    19 C    1.285    63 H    0.960
    21   6 C    3.983 --    20 C    1.545    22 C    1.277    64 H    0.966
                            28 C    0.106
    22   6 C    3.988 --    23 C    1.280    21 C    1.277    27 C    1.251
    23   6 C    3.988 --    24 C    1.555    22 C    1.280    65 H    0.967
                            26 C    0.117
    24   6 C    3.986 --    23 C    1.555    25 C    1.322    66 H    0.969
    25   6 C    3.988 --    26 C    1.553    24 C    1.322    67 H    0.969
    26   6 C    3.988 --    25 C    1.553    27 C    1.284    68 H    0.966
                            23 C    0.117
    27   6 C    3.987 --    26 C    1.284    22 C    1.251    28 C    1.238
    28   6 C    3.984 --    19 C    1.446    27 C    1.238    29 C    1.035
                            21 C    0.106
    29   6 C    3.985 --    30 C    1.464    38 C    1.230    28 C    1.035
                            32 C    0.106
    30   6 C    3.948 --    29 C    1.464    31 C    1.289    39 N    0.963
    31   6 C    3.985 --    32 C    1.557    30 C    1.289    69 H    0.964
    32   6 C    3.984 --    31 C    1.557    33 C    1.273    70 H    0.966
                            29 C    0.106
    33   6 C    3.989 --    34 C    1.281    32 C    1.273    38 C    1.254
    34   6 C    3.988 --    35 C    1.554    33 C    1.281    71 H    0.967
                            37 C    0.117
    35   6 C    3.987 --    34 C    1.554    36 C    1.324    72 H    0.969
    36   6 C    3.990 --    37 C    1.551    35 C    1.324    73 H    0.970
    37   6 C    3.990 --    36 C    1.551    38 C    1.286    74 H    0.965
                            34 C    0.117
    38   6 C    3.986 --    37 C    1.286    33 C    1.254    29 C    1.230
    39   7 N    3.416 --     8 P    1.232    40 C    0.970    30 C    0.963
    40   6 C    3.964 --    77 H    0.974    76 H    0.974    39 N    0.970
                            75 H    0.964
    41   1 H    0.995 --     1 C    0.978
    42   1 H    0.997 --     1 C    0.975
    43   1 H    0.998 --     1 C    0.977
    44   1 H    0.996 --     2 C    0.958
    45   1 H    0.994 --     3 C    0.975
    46   1 H    0.996 --     3 C    0.963
    47   1 H    0.996 --     3 C    0.957
    48   1 H    0.997 --     5 C    0.944
    49   1 H    0.995 --     6 C    0.979
    50   1 H    0.998 --     6 C    0.981
    51   1 H    0.996 --     6 C    0.980
    52   1 H    0.998 --     7 C    0.979
    53   1 H    0.995 --     7 C    0.980
    54   1 H    0.996 --     7 C    0.978
    55   1 H    0.998 --    12 C    0.967
    56   1 H    0.996 --    13 C    0.968
    57   1 H    0.996 --    14 C    0.969
    58   1 H    0.997 --    15 C    0.967
    59   1 H    0.997 --    16 C    0.953
    60   1 H    0.990 --    18 C    0.974
    61   1 H    0.994 --    18 C    0.964
    62   1 H    0.996 --    18 C    0.975
    63   1 H    0.997 --    20 C    0.960
    64   1 H    0.995 --    21 C    0.966
    65   1 H    0.997 --    23 C    0.967
    66   1 H    0.996 --    24 C    0.969
    67   1 H    0.997 --    25 C    0.969
    68   1 H    0.998 --    26 C    0.966
    69   1 H    0.997 --    31 C    0.964
    70   1 H    0.995 --    32 C    0.966
    71   1 H    0.997 --    34 C    0.967
    72   1 H    0.996 --    35 C    0.969
    73   1 H    0.997 --    36 C    0.970
    74   1 H    0.998 --    37 C    0.965
    75   1 H    0.996 --    40 C    0.964
    76   1 H    0.996 --    40 C    0.974
    77   1 H    0.995 --    40 C    0.974
 ---------------------------------------------------------------------------

Topologies differ in total number of bonds
Writing topology from bond orders to xtbtopo.mol

molecular dipole:
                 x           y           z       tot (Debye)
 q only:        0.597      -0.298       0.472
   full:        0.547      -0.196       0.416       1.816
molecular quadrupole (traceless):
                xx          xy          yy          xz          yz          zz
 q only:       16.943      -3.670      -4.106       3.088      -8.513     -12.837
  q+dip:       15.805      -2.224      -3.129       8.631      -4.940     -12.676
   full:       15.734      -0.870      -3.173       4.341      -8.545     -12.561

           -------------------------------------------------
          |                Geometry Summary                 |
           -------------------------------------------------

      molecular mass/u    :      629.6768759
   center of mass at/Å    :       -0.0436983       0.0144927      -0.4964148
  moments of inertia/u·Å² :        0.4604169E+04   0.7581061E+04   0.8626617E+04
rotational constants/cm⁻¹ :        0.3661384E-02   0.2223651E-02   0.1954142E-02

 * 78 selected distances

     #   Z          #   Z                                           value/Å
     1   6 C        2   6 C                                       1.5299578
     2   6 C        3   6 C                                       1.5240700
     2   6 C        4   7 N                                       1.4790771
     4   7 N        5   6 C                                       1.4809808
     5   6 C        6   6 C                                       1.5236580
     5   6 C        7   6 C                                       1.5280298
     4   7 N        8  15 P                                       1.6558561 (max)
    11   6 C       12   6 C                                       1.3866849
    12   6 C       13   6 C                                       1.3842287
    13   6 C       14   6 C                                       1.3849559
    14   6 C       15   6 C                                       1.3858383
    11   6 C       16   6 C                                       1.3854804
    15   6 C       16   6 C                                       1.3829525
     8  15 P       17   7 N                                       1.6494288
    17   7 N       18   6 C                                       1.4467839
    17   7 N       19   6 C                                       1.4342480
    19   6 C       20   6 C                                       1.4055603
    20   6 C       21   6 C                                       1.3662104
    21   6 C       22   6 C                                       1.4111069
    22   6 C       23   6 C                                       1.4107296
    23   6 C       24   6 C                                       1.3667097
    24   6 C       25   6 C                                       1.4033656
    25   6 C       26   6 C                                       1.3672661
    22   6 C       27   6 C                                       1.4215788
    26   6 C       27   6 C                                       1.4111364
    19   6 C       28   6 C                                       1.3785810
    27   6 C       28   6 C                                       1.4216564
    29   6 C       30   6 C                                       1.3782566
    30   6 C       31   6 C                                       1.4066823
    31   6 C       32   6 C                                       1.3638018
    32   6 C       33   6 C                                       1.4103438
    33   6 C       34   6 C                                       1.4102178
    34   6 C       35   6 C                                       1.3665498
    35   6 C       36   6 C                                       1.4026646
    36   6 C       37   6 C                                       1.3675844
    29   6 C       38   6 C                                       1.4249733
    33   6 C       38   6 C                                       1.4200523
    37   6 C       38   6 C                                       1.4114784
     8  15 P       39   7 N                                       1.6540734
    30   6 C       39   7 N                                       1.4317799
    39   7 N       40   6 C                                       1.4567741
     1   6 C       41   1 H                                       1.0869308
     1   6 C       42   1 H                                       1.0842547
     1   6 C       43   1 H                                       1.0865176
     2   6 C       44   1 H                                       1.0951451
     3   6 C       45   1 H                                       1.0871579
     3   6 C       46   1 H                                       1.0868749
     3   6 C       47   1 H                                       1.0869382
     5   6 C       48   1 H                                       1.0933365
     6   6 C       49   1 H                                       1.0871648
     6   6 C       50   1 H                                       1.0879146
     6   6 C       51   1 H                                       1.0855059
     7   6 C       52   1 H                                       1.0890448
     7   6 C       53   1 H                                       1.0870825
     7   6 C       54   1 H                                       1.0842934
    12   6 C       55   1 H                                       1.0793102
    13   6 C       56   1 H                                       1.0788538
    14   6 C       57   1 H                                       1.0786344 (min)
    15   6 C       58   1 H                                       1.0789087
    16   6 C       59   1 H                                       1.0827973
    18   6 C       60   1 H                                       1.0920262
    18   6 C       61   1 H                                       1.0875657
    18   6 C       62   1 H                                       1.0930268
    20   6 C       63   1 H                                       1.0806065
    21   6 C       64   1 H                                       1.0791155
    23   6 C       65   1 H                                       1.0796800
    24   6 C       66   1 H                                       1.0790299
    25   6 C       67   1 H                                       1.0792046
    26   6 C       68   1 H                                       1.0794188
    31   6 C       69   1 H                                       1.0795417
    32   6 C       70   1 H                                       1.0792950
    34   6 C       71   1 H                                       1.0797530
    35   6 C       72   1 H                                       1.0789570
    36   6 C       73   1 H                                       1.0792060
    37   6 C       74   1 H                                       1.0791235
    40   6 C       75   1 H                                       1.0905295
    40   6 C       76   1 H                                       1.0945480
    40   6 C       77   1 H                                       1.0896453

 * 4 distinct bonds (by element types)

   Z      Z             #   av. dist./Å        max./Å        min./Å
   1 H    6 C          37     1.0845119     1.0951451     1.0786344
   6 C    6 C          32     1.4106988     1.5299578     1.3638018
   6 C    7 N           6     1.4549406     1.4809808     1.4317799
   7 N   15 P           3     1.6531194     1.6558561     1.6494288


optimized geometry written to: xtbopt.xyz


           -------------------------------------------------
          | TOTAL ENERGY             -109.128631716721 Eh   |
          | GRADIENT NORM               0.000032860438 Eh/α |
          | HOMO-LUMO GAP               2.622828030497 eV   |
           -------------------------------------------------

------------------------------------------------------------------------
 * finished run on 2024/12/16 at 17:23:00.420     
------------------------------------------------------------------------
 total:
 * wall-time:     0 d,  0 h,  2 min, 28.647 sec
 *  cpu-time:     0 d,  0 h, 19 min, 29.749 sec
 * ratio c/w:     7.869 speedup
 SCF:
 * wall-time:     0 d,  0 h,  0 min,  2.796 sec
 *  cpu-time:     0 d,  0 h,  0 min, 22.043 sec
 * ratio c/w:     7.883 speedup
 ANC optimizer:
 * wall-time:     0 d,  0 h,  2 min, 25.543 sec
 *  cpu-time:     0 d,  0 h, 19 min,  5.916 sec
 * ratio c/w:     7.873 speedup

