99
 energy: -145.779878074095 gnorm: 0.760166592069 xtb: 6.7.1 (edcfbbe)
C            1.30646100000000       -6.80928900000000       -2.12182300000000
O            1.64034100000000       -5.47325300000000       -2.45440500000000
C            1.97719100000000       -4.50261300000000       -1.52746200000000
C            2.27816100000000       -3.24418500000000       -2.00474400000000
C            2.62197900000000       -2.23547400000000       -1.11494800000000
C            2.68052200000000       -2.42409300000000        0.24157700000000
C            3.04595600000000       -1.36808800000000        1.19269500000000
C            3.96718000000000       -1.71325600000000        2.14610200000000
C            4.35358600000000       -0.77121900000000        3.05335300000000
C            3.83676900000000        0.48662400000000        3.00932000000000
C            2.88967000000000        0.90405900000000        2.04068700000000
C            2.48382700000000       -0.08220000000000        1.10750600000000
O            1.58539300000000       -0.12075100000000        0.03846400000000
P            0.01399800000000        0.44590100000000       -0.18146100000000
Se          -1.29962800000000       -0.77349000000000        0.83480500000000
S           -0.74625400000000       -2.30674100000000        1.35160700000000
C           -2.03981000000000       -3.30718100000000        2.05394700000000
C           -2.24582300000000       -3.19166200000000        3.42600800000000
C           -3.22350200000000       -3.92121600000000        4.07440100000000
C           -3.99197100000000       -4.77294600000000        3.30742700000000
C           -3.77850700000000       -4.88159900000000        1.93754500000000
C           -4.61446100000000       -5.80947000000000        1.10038900000000
C           -2.80907000000000       -4.15531000000000        1.30709100000000
N           -0.53414600000000        0.39113400000000       -1.80493200000000
C           -1.70637100000000       -0.40799200000000       -1.96202400000000
C           -1.46283700000000       -1.87375500000000       -2.06960000000000
C           -2.64560600000000        0.14676700000000       -3.01071600000000
C            0.46710400000000        0.35849300000000       -2.77281000000000
C            1.58146600000000        1.30972600000000       -2.39732100000000
C            0.08549900000000        0.69501900000000       -4.18941000000000
O           -0.30393000000000        1.93559500000000        0.63032400000000
C            0.51948100000000        3.03305000000000        0.93199400000000
C           -0.12514900000000        4.16530500000000        0.44794100000000
C           -1.44196200000000        4.07848500000000       -0.21219200000000
C           -2.48158100000000        3.34598700000000        0.30854400000000
C           -3.68665500000000        3.30074000000000       -0.35743500000000
C           -3.87275500000000        3.98773100000000       -1.55630200000000
O           -5.11042000000000        3.90503700000000       -2.18340100000000
C           -5.26529400000000        4.61813500000000       -3.40535900000000
C           -2.82336700000000        4.72376600000000       -2.07634200000000
C           -1.61228900000000        4.77269500000000       -1.41265600000000
C            0.41665000000000        5.40575400000000        0.56447300000000
C            1.62857000000000        5.54724500000000        1.17099100000000
C            2.27881400000000        4.45046500000000        1.65330300000000
C            1.76628200000000        3.13227200000000        1.57117000000000
C            2.73149100000000        2.32603700000000        2.27592700000000
C            2.71174000000000        2.38615100000000        3.77801400000000
C            4.00449800000000        1.57603700000000        4.03119100000000
C            4.04535500000000        2.99028500000000        1.82259800000000
C            3.67235200000000        4.40323800000000        2.21405700000000
C            2.37389000000000       -3.70122600000000        0.70894100000000
C            2.02673800000000       -4.72562100000000       -0.16850700000000
H            0.89266300000000       -6.93808200000000       -1.11914500000000
H            2.24223400000000       -7.39058800000000       -2.24393300000000
H            0.58315800000000       -7.21693400000000       -2.88556200000000
H            2.24694100000000       -3.03723700000000       -3.07776900000000
H            2.84787600000000       -1.28341500000000       -1.53142500000000
H            4.38545900000000       -2.69661000000000        2.19361400000000
H            5.08257100000000       -1.05992100000000        3.80656300000000
H           -1.64624400000000       -2.52440000000000        4.03880900000000
H           -3.37441300000000       -3.82486000000000        5.13130100000000
H           -4.77584400000000       -5.36194500000000        3.80176900000000
H           -4.05977400000000       -6.09764700000000        0.18674900000000
H           -5.58950800000000       -5.34518300000000        0.88507300000000
H           -4.83248400000000       -6.70073400000000        1.74734800000000
H           -2.63315400000000       -4.23208800000000        0.23872800000000
H           -2.29248600000000       -0.27221800000000       -0.99870800000000
H           -0.42862300000000       -2.07858700000000       -1.70031200000000
H           -1.63267300000000       -2.28198500000000       -3.08665100000000
H           -2.12819000000000       -2.46926000000000       -1.40942100000000
H           -2.54151100000000        1.21864000000000       -3.16418200000000
H           -2.58379700000000       -0.45441500000000       -3.94412500000000
H           -3.71856900000000        0.01274300000000       -2.67455600000000
H            0.92902000000000       -0.67039400000000       -2.82721700000000
H            2.59825700000000        0.86948200000000       -2.53880800000000
H            1.56628600000000        2.22686200000000       -3.06121900000000
H            1.54055200000000        1.70148700000000       -1.38532200000000
H           -0.49585100000000        1.60427200000000       -4.32240200000000
H           -0.34625300000000       -0.17769900000000       -4.72088500000000
H            1.03221300000000        0.88933800000000       -4.78275400000000
H           -2.37298600000000        2.80736200000000        1.22880900000000
H           -4.51994300000000        2.72641200000000        0.03830600000000
H           -4.60273300000000        4.24564400000000       -4.20920100000000
H           -6.34205900000000        4.55244800000000       -3.68871100000000
H           -5.06882800000000        5.68093300000000       -3.17662600000000
H           -2.97701700000000        5.26344300000000       -3.02161500000000
H           -0.78708600000000        5.34526200000000       -1.81405400000000
H           -0.09272900000000        6.27545900000000        0.18744200000000
H            2.04461400000000        6.54164100000000        1.25207700000000
H            1.84410000000000        1.81343600000000        4.19272000000000
H            2.82969800000000        3.34742100000000        4.24908900000000
H            4.90681800000000        2.12853400000000        4.02977800000000
H            3.87297800000000        1.05087700000000        5.03655700000000
H            4.02508000000000        2.87109200000000        0.71154400000000
H            4.89005000000000        2.56439700000000        2.27154400000000
H            3.77833800000000        4.61878600000000        3.25176200000000
H            4.31797500000000        5.05407000000000        1.55512400000000
H            2.41854800000000       -3.85431200000000        1.78119400000000
H            1.79774700000000       -5.69063100000000        0.22016100000000
99
 energy: -145.984985766210 gnorm: 0.193641646731 xtb: 6.7.1 (edcfbbe)
C            1.31291664954644       -6.80909904115810       -2.12587854470561
O            1.63259491684278       -5.46738247012455       -2.45714730216965
C            1.97398605787914       -4.51077553591801       -1.53038686298168
C            2.27712593268611       -3.24357652968924       -2.00960297565185
C            2.62055993996735       -2.23662561419726       -1.12537174530435
C            2.67439890370147       -2.43130522619825        0.23934249454454
C            3.04632392431401       -1.37678376202494        1.18804837348103
C            3.97186321682125       -1.71547676845053        2.14656285068280
C            4.36285457318950       -0.77371469327585        3.06230174742695
C            3.83467962759705        0.48117152551709        3.01107695303956
C            2.89187466529054        0.87494435365739        2.03406197813396
C            2.48517483653973       -0.09066448096684        1.11047461621234
O            1.57793142387812       -0.09349420379204        0.03560546712379
P            0.03782206236547        0.46441143800552       -0.18880832812930
Se          -1.40885227311931       -0.62582985140131        0.87150388297005
S           -0.63633791731429       -2.46029099939351        1.39276548466812
C           -2.04698874652550       -3.31255155000193        2.06947923621730
C           -2.24554424402689       -3.18840918974131        3.43361042813288
C           -3.22479700844718       -3.92308494285329        4.07096123251559
C           -3.99695983513445       -4.77661855530793        3.30769572260513
C           -3.78844750321153       -4.88936426493555        1.93612632642793
C           -4.61813104427271       -5.81733357176669        1.10782133142483
C           -2.81148122816502       -4.15405459961272        1.30623165140599
N           -0.52888141074150        0.40267044338287       -1.79660050545280
C           -1.72047400219416       -0.39928522902118       -1.96142997798417
C           -1.45942820953310       -1.88337489504980       -2.06847559782872
C           -2.66209588234638        0.14354879446847       -3.01794933322422
C            0.49072021650045        0.35696345146728       -2.78414196487058
C            1.59744212383470        1.32530196472545       -2.40485394000432
C            0.09252540617251        0.69150412711770       -4.20759387966950
O           -0.27875643224431        1.90548990172659        0.62802363746533
C            0.51514117313707        3.03054765286830        0.92634309064313
C           -0.13430834179807        4.16761165715431        0.44365562380556
C           -1.44103967285795        4.07821386465212       -0.21975310156748
C           -2.48889489128941        3.34523336292492        0.30498595974600
C           -3.69485113709730        3.29897415124196       -0.36048123567583
C           -3.87823013721633        3.98751583042542       -1.56079365439166
O           -5.10483162667412        3.90046625283359       -2.18472180912049
C           -5.26847826970346        4.62244112687292       -3.39776401328628
C           -2.82335333320148        4.72629068500881       -2.08078874608693
C           -1.61486164118251        4.77320372211941       -1.41454794698125
C            0.41508981951882        5.41538189126211        0.56565750168425
C            1.63409187611968        5.55837407740258        1.17415049314303
C            2.27785065608534        4.45596888302124        1.65510888005075
C            1.74573325953530        3.14873883789263        1.56699325029942
C            2.72278420470161        2.31332773047478        2.26772111292485
C            2.71638172132155        2.37653208967213        3.78620326902409
C            3.98805994554756        1.55324549472978        4.05349154527425
C            4.03151987694439        2.98985120648391        1.81326841686141
C            3.68314316914687        4.41469942806203        2.18652942004817
C            2.37348712440559       -3.70563047743647        0.70963710575047
C            2.02787893804982       -4.72582144231667       -0.16206190527294
H            0.89383984248270       -6.93660982984349       -1.12436587019430
H            2.23894588277076       -7.39380945595052       -2.23832841155649
H            0.59049170927809       -7.20470899771873       -2.87689403292020
H            2.24743036442624       -3.03978946210703       -3.07504762489632
H            2.85321440243035       -1.27699390054415       -1.53609702296517
H            4.38695239512693       -2.70147211926889        2.19102111093615
H            5.08452015393139       -1.05658217235153        3.81259968064166
H           -1.64248564482962       -2.52281078743929        4.03503019875939
H           -3.37502913330480       -3.82547779891770        5.13131676111660
H           -4.77390155635603       -5.36080627850213        3.79698061246017
H           -4.07159659167600       -6.09712393832909        0.19556021859897
H           -5.58302053685135       -5.34882617014726        0.88096380675691
H           -4.83241767172030       -6.70034217452225        1.73539109653299
H           -2.63326472999118       -4.23347806108092        0.24097554646014
H           -2.29566308974178       -0.26126537022368       -1.01535528311045
H           -0.43223722225627       -2.08563808378488       -1.71008672347709
H           -1.62225482068173       -2.27927698523113       -3.08074403529429
H           -2.12848728082022       -2.46506865004565       -1.41389662463266
H           -2.53831363306278        1.21312635851418       -3.16782572865570
H           -2.58129020726735       -0.44210718082489       -3.94424885397915
H           -3.71076543170872        0.01223312251856       -2.67668942593827
H            0.92811578285155       -0.66881322101133       -2.82734304615847
H            2.59319285710281        0.87272121970054       -2.53772376867726
H            1.56645843444163        2.22289868129676       -3.05562168329391
H            1.53809668366464        1.70243649275825       -1.38517209223222
H           -0.49959402547066        1.59760585882258       -4.31831561679757
H           -0.35404477672601       -0.17015928359443       -4.71780395351745
H            1.02705638500843        0.88613530276754       -4.77775892687105
H           -2.37544392831534        2.80839321797596        1.23061989709218
H           -4.52097805594756        2.72703527148486        0.03770360999746
H           -4.61091488693372        4.24817797104372       -4.20193115129650
H           -6.33176478031127        4.54630686615844       -3.68585748450881
H           -5.06862804204252        5.68169310014029       -3.18430983797898
H           -2.96966336246096        5.26242310344848       -3.01647823216803
H           -0.78918467861476        5.34399229878961       -1.81578777013957
H           -0.09638722047527        6.27932369213186        0.18673334825944
H            2.05246586374421        6.54524337936254        1.25439391258163
H            1.84891697670637        1.82275776801778        4.19132832698943
H            2.81728652339015        3.34796562792754        4.24879474057275
H            4.90337008143922        2.12356406496313        4.03693046742019
H            3.88142094801921        1.05422856991084        5.03934684832360
H            4.03630474724626        2.87630278853356        0.71531879101325
H            4.89933907612417        2.56741124574140        2.26323630831965
H            3.78258260615131        4.62514037241004        3.24247972506819
H            4.31834847599200        5.06703474602984        1.56457782772165
H            2.41512921605707       -3.86012300269724        1.77895888129876
H            1.79791744583753       -5.69494524684948        0.22713577096484
99
 energy: -146.047117919632 gnorm: 0.089956641981 xtb: 6.7.1 (edcfbbe)
C            1.32443242152362       -6.80402289970510       -2.12865602962022
O            1.61806830266237       -5.45776254432297       -2.46263514402126
C            1.96623514747656       -4.52153391551958       -1.53296298713244
C            2.27212836490013       -3.24851579214431       -2.01589614553844
C            2.61720514685669       -2.23982607987941       -1.14068407663257
C            2.66553043879419       -2.44493557101597        0.22994047848860
C            3.04892711888922       -1.39585862236295        1.17814979860667
C            3.98306092694211       -1.72501872510489        2.14208626307485
C            4.37393079502903       -0.78832349093060        3.07448313027233
C            3.82568693957043        0.45980239506749        3.02412001231766
C            2.89358301392891        0.83930123498805        2.03054033061001
C            2.48386597556777       -0.10904369837186        1.11183504620766
O            1.55858891096389       -0.05232513619112        0.03684620820964
P            0.03401257669050        0.45322960247891       -0.16605681127716
Se          -1.45885327406640       -0.58760372404983        1.08937895118561
S           -0.58203386862033       -2.50530414242922        1.39337436113941
C           -2.02691958068695       -3.31086610723363        2.08336805540863
C           -2.23608656704717       -3.18279491702062        3.44486601615128
C           -3.22854901698026       -3.91894538656089        4.06564615892021
C           -4.00134948061201       -4.77658515652795        3.30526450919948
C           -3.79637804200056       -4.89029289830122        1.93398166074672
C           -4.62459070993558       -5.82630198606466        1.11827897000876
C           -2.80657179185227       -4.14722326270477        1.31172518337464
N           -0.51308717229515        0.41284140655551       -1.77913724518962
C           -1.72636346481917       -0.38636476777303       -1.96765111653592
C           -1.45422197552885       -1.88583110999715       -2.07088496164325
C           -2.67364238971983        0.14414122978082       -3.03188724971159
C            0.52253563274357        0.36005124131574       -2.78991614356121
C            1.62066797824584        1.34825687803311       -2.41449550606816
C            0.10171959624720        0.68545528874692       -4.22107145436287
O           -0.22944547295903        1.86403176655420        0.63078109800358
C            0.51425171318840        3.03354811833426        0.91226962607261
C           -0.14676403635252        4.17522074571760        0.43759990017673
C           -1.44504286660359        4.07502676501352       -0.23221941139965
C           -2.50075183312639        3.34237279874395        0.29457704112734
C           -3.70745303353475        3.29563659182634       -0.36912177496046
C           -3.88466535353361        3.98592518713572       -1.57015997478740
O           -5.09996626718412        3.89259665075597       -2.18743654918493
C           -5.27296474369807        4.62890166422520       -3.38567013099205
C           -2.82585079941109        4.72746833807785       -2.08803138588489
C           -1.62112920379474        4.77248197392653       -1.42084797765672
C            0.40737780288088        5.43147444720604        0.57080686865350
C            1.63544123598445        5.58020391008323        1.17710114880696
C            2.27577635278321        4.47135795437894        1.65195291273611
C            1.72598493656129        3.17071122887342        1.56584307890560
C            2.71209770305148        2.29678819015639        2.25531127263748
C            2.71572022140977        2.35877920710046        3.79081744653264
C            3.96129360991039        1.51500553225977        4.08829582896838
C            4.01693906772278        2.99047720243304        1.79349399468763
C            3.69641405009043        4.43231576648406        2.14241433954943
C            2.37119145402746       -3.71721398617185        0.70624846398316
C            2.02695382389145       -4.73564149298748       -0.15837066113541
H            0.89630161023215       -6.92911986115971       -1.13277929357433
H            2.23920447849123       -7.39891631872544       -2.22475443496675
H            0.60200736415417       -7.17808599017022       -2.86748754767376
H            2.24723557631859       -3.05119594512265       -3.07684419423709
H            2.86732392418619       -1.27407201888211       -1.54564058730822
H            4.39461141783527       -2.71487820248969        2.18098928113645
H            5.09141450568192       -1.05752228930488        3.82948502036795
H           -1.62876360550864       -2.51766520005934        4.03553794310715
H           -3.37891526536012       -3.82782615578465        5.12893146906378
H           -4.77130719636738       -5.36326987698935        3.78773124110654
H           -4.09544305852392       -6.10132438355935        0.20654790206352
H           -5.57747601440008       -5.35659589683716        0.87054795809099
H           -4.83895220998633       -6.71308502307403        1.71411424706306
H           -2.62904026026611       -4.23487157897566        0.24906525911700
H           -2.30486196778940       -0.23487278938720       -1.04821312347850
H           -0.43683199256181       -2.10125133100904       -1.72666912844426
H           -1.59663137807666       -2.27214797230432       -3.07917285341695
H           -2.13132830077153       -2.45203066249800       -1.42367629279284
H           -2.53290306431479        1.20900685283638       -3.18055782456746
H           -2.57432601356401       -0.41468606568359       -3.95968571794330
H           -3.70237506659490        0.00903761414606       -2.68528346480634
H            0.93554291519803       -0.66420042099906       -2.82522520134723
H            2.60024979038255        0.88726631841426       -2.53637441474954
H            1.57166381767431        2.23088341394564       -3.05254242561006
H            1.53543713434353        1.71004637373437       -1.38844607411452
H           -0.50780274678216        1.58245892480280       -4.30483580831432
H           -0.37751569748907       -0.15963187548045       -4.71079620294120
H            1.02141419497039        0.87825769205578       -4.78132930527344
H           -2.38568630986176        2.81509586966614        1.22978108737452
H           -4.53015807298444        2.72809427346814        0.03427987735772
H           -4.62627163493377        4.25245980187745       -4.18940558815655
H           -6.32121708599905        4.52860437575705       -3.67677802672240
H           -5.07091183371491        5.68858307948554       -3.19857675786131
H           -2.95503068180752        5.26484670628515       -3.01456648948387
H           -0.79534873170272        5.34116123017013       -1.82306887422303
H           -0.10890593743335        6.29110196116416        0.18776369492856
H            2.06871104465869        6.55997966594994        1.25619569738292
H            1.84290796042934        1.83596990209646        4.19040703327025
H            2.78641578433479        3.34239234671786        4.24124348635566
H            4.88217559008759        2.09648775198471        4.05964098842625
H            3.89160765993902        1.04464642764685        5.06652269884162
H            4.06154800992608        2.88699794044909        0.70633121355599
H            4.91050532762474        2.58292869718371        2.23383724650765
H            3.79542583176613        4.64213628339395        3.20599317573269
H            4.32434479636718        5.10705661561372        1.56739606863898
H            2.40603282011971       -3.87683808908096        1.77350673695703
H            1.79897925790150       -5.70668107415058        0.23925488809385
99
 energy: -146.071896268278 gnorm: 0.035242829722 xtb: 6.7.1 (edcfbbe)
C            1.33023265102313       -6.79772130234423       -2.13137998210368
O            1.59988260772932       -5.44956352080928       -2.46901725855288
C            1.95716389427761       -4.53542998912584       -1.53595417659237
C            2.26544024627822       -3.25848892025788       -2.02106219162943
C            2.61367567452057       -2.24673263164548       -1.15489667767075
C            2.65680350235384       -2.46273325360316        0.21903507135940
C            3.04867472580920       -1.41932476510796        1.16749028672758
C            3.99119555530890       -1.73902024237004        2.13367491418267
C            4.37440217694434       -0.81236832051650        3.08736413768077
C            3.80652564300102        0.43151926583173        3.04317495552010
C            2.89537082140373        0.81055035751934        2.02915982751257
C            2.48120890224815       -0.13067427580484        1.11457932561242
O            1.53559500847836        0.00113627605411        0.04522751258600
P            0.02934881996861        0.45759948759788       -0.11916233358069
Se          -1.46505735723906       -0.53868848588715        1.22362058601851
S           -0.55537409656803       -2.54449000219781        1.35047005724263
C           -2.00015998704249       -3.32348049925201        2.09177403089018
C           -2.22214123998869       -3.17917303666207        3.45183667169890
C           -3.23139175175419       -3.90936608863125        4.05773975066674
C           -4.00402495493637       -4.77258662728567        3.30261721136418
C           -3.80150577872849       -4.89346388349166        1.93215386404647
C           -4.63281683989387       -5.83283004715754        1.12353545556280
C           -2.79618083910839       -4.15273689103271        1.32094801636564
N           -0.49240076686400        0.42201455185287       -1.73650719317330
C           -1.72623801213789       -0.37527433160603       -1.93317779797999
C           -1.44661798910384       -1.88309564205143       -2.06241593937331
C           -2.66545770878093        0.14655535489411       -3.02733052309690
C            0.55170702412317        0.36346004777945       -2.77770600480361
C            1.64451991053229        1.37393518883477       -2.42235265410797
C            0.10241942428417        0.67692680744642       -4.21407131776761
O           -0.17786649479220        1.83473994214862        0.64550850035402
C            0.51578745292512        3.04597136852911        0.90127536270064
C           -0.15942809607433        4.18631990392978        0.43304687051897
C           -1.44964406955155        4.07168539232122       -0.24596167828760
C           -2.51086940970119        3.33775125379373        0.27923216433333
C           -3.71830968740394        3.29218247424217       -0.38264713668794
C           -3.89125202025891        3.98433123814239       -1.58422909609612
O           -5.09854088177537        3.88821606891278       -2.19218696303784
C           -5.28307820151561        4.63182380404330       -3.37868013107937
C           -2.82972382207139        4.72556855619509       -2.10124167849014
C           -1.62779038952083        4.76854467330723       -1.43225780544547
C            0.39560536340954        5.44809347049901        0.57739225868367
C            1.63275842048743        5.60445784001465        1.17469332835203
C            2.27614331031280        4.49067770213474        1.64172150773932
C            1.71464352694651        3.19567658103453        1.56535161943374
C            2.71029340038857        2.28692324016121        2.23891349465838
C            2.70663322171124        2.34395378004147        3.78879453085165
C            3.92798637710845        1.48003508840797        4.11379116406042
C            4.01302583868179        2.99226283658600        1.76966402115877
C            3.70519136809185        4.44519386359678        2.10068095639572
C            2.36526287010727       -3.73341787403789        0.69948682118878
C            2.02187263722337       -4.75309082337269       -0.15933524269338
H            0.89457503110491       -6.91570007585644       -1.13863882912924
H            2.24256198484946       -7.39495286742769       -2.20457973786009
H            0.61452349860243       -7.15829254734486       -2.86827412989806
H            2.24431787550796       -3.07286321773179       -3.08209139108119
H            2.88392016521120       -1.27839704858663       -1.55235990411484
H            4.40729851830656       -2.73064142090913        2.15832912486105
H            5.09185402163072       -1.06816707491195        3.84748152909483
H           -1.60554658296847       -2.51512306575968        4.03447054889311
H           -3.38531180936906       -3.82230055797048        5.12254191189260
H           -4.76891889643912       -5.36352814089055        3.78072401463086
H           -4.11786724508646       -6.10811339420405        0.20876795353901
H           -5.57831172756827       -5.36137458766287        0.86041863239306
H           -4.84973309971145       -6.72574804863470        1.69786727989389
H           -2.62112056592385       -4.24476294849890        0.25974038880551
H           -2.29119210426475       -0.21573927804894       -1.01625892197413
H           -0.43653448869218       -2.11400335104057       -1.72953790857136
H           -1.56892046489664       -2.24708904728972       -3.07899380788019
H           -2.13665374864430       -2.44132625583649       -1.43375973932706
H           -2.52204135562202        1.20949127711260       -3.18220145542350
H           -2.54893265802151       -0.38342832169770       -3.96662353554072
H           -3.68881214273441        0.00302064673120       -2.69758664771030
H            0.95532371739652       -0.65525998620302       -2.80560523446937
H            2.61982180729186        0.91675971025471       -2.53666615690302
H            1.57778340676864        2.24545552055536       -3.05925328294111
H            1.54089392755857        1.72933378065078       -1.39704349572504
H           -0.51653312032466        1.56825285796604       -4.27654570261370
H           -0.40885314450059       -0.15527107154755       -4.68591566954311
H            1.00695426176842        0.86266266368228       -4.78475561885882
H           -2.39538244306840        2.82147794823500        1.22286510826053
H           -4.54226513063837        2.73150095528298        0.02583913802344
H           -4.64085666260661        4.25692123537972       -4.18248308762709