79
 energy: -129.386066761528 gnorm: 0.144682162025 xtb: 6.7.1 (edcfbbe)
C            1.50837800000000       -0.16333000000000       -1.67884900000000
N            0.48833000000000        0.05883500000000       -0.65992500000000
C           -0.84390600000000        0.16242800000000       -1.15234500000000
C           -1.08691100000000        0.67274400000000       -2.44428300000000
C           -2.37355600000000        0.84830400000000       -2.94023100000000
C           -3.47571700000000        0.55889500000000       -2.14638700000000
C           -4.76752100000000        0.80503500000000       -2.64482000000000
C           -5.89586300000000        0.56963800000000       -1.86515400000000
C           -5.74171300000000        0.09838600000000       -0.57172900000000
C           -4.46044400000000       -0.15559300000000       -0.07317000000000
C           -3.28272000000000        0.03327600000000       -0.84472300000000
C           -1.94799200000000       -0.24722500000000       -0.35482600000000
C           -1.73605600000000       -0.97156300000000        0.86623500000000
C           -0.98512000000000       -0.39328400000000        1.92874600000000
C           -0.96984900000000       -1.03719800000000        3.18150300000000
C           -1.60490600000000       -2.25586900000000        3.39282100000000
C           -2.25669500000000       -2.89969500000000        2.34916600000000
C           -2.83292400000000       -4.16256100000000        2.57311000000000
C           -3.45751100000000       -4.85996200000000        1.54395800000000
C           -3.50123400000000       -4.30535700000000        0.27602700000000
C           -2.93477200000000       -3.04761000000000        0.04866300000000
C           -2.31835800000000       -2.28299100000000        1.07574700000000
N           -0.27638200000000        0.82864900000000        1.72052900000000
C           -0.05091300000000        1.62617100000000        2.92897200000000
P            1.01404900000000        0.84504500000000        0.68508200000000
S            2.74831200000000        0.11762900000000        1.60943500000000
S            2.27849900000000       -1.79980800000000        2.15495300000000
C            2.61430600000000       -2.75414700000000        0.68250800000000
C            1.49550800000000       -3.22621900000000       -0.02473300000000
C            1.64050500000000       -3.97645500000000       -1.19121900000000
C            2.91093200000000       -4.27454200000000       -1.66540800000000
C            4.03194600000000       -3.83317900000000       -0.96285900000000
C            3.90432100000000       -3.08241400000000        0.22654200000000
C            5.16069200000000       -2.65386400000000        0.94561500000000
F            5.47005900000000       -1.34423200000000        0.73895800000000
F            6.26484500000000       -3.34497400000000        0.52587700000000
F            5.12688800000000       -2.84079600000000        2.29333900000000
N            1.03399200000000        2.41640600000000        0.17836300000000
C           -0.25100200000000        3.07641600000000       -0.10559400000000
C           -0.25336000000000        4.49487200000000        0.44010800000000
C            0.76030300000000        5.31531400000000       -0.32816500000000
C            2.04725800000000        4.56082200000000       -0.54303000000000
C            3.14941700000000        5.29930000000000       -1.01871200000000
C            4.36323200000000        4.67673300000000       -1.27481800000000
C            4.47796300000000        3.31074400000000       -1.07244100000000
C            3.38148000000000        2.57204100000000       -0.60912700000000
C            2.14258000000000        3.16331700000000       -0.32364000000000
H            2.44081200000000       -0.52116700000000       -1.23685000000000
H            1.74159700000000        0.75372900000000       -2.22850300000000
H            1.19791800000000       -0.93518300000000       -2.39302300000000
H           -0.26831600000000        0.98970700000000       -3.08360000000000
H           -2.49693900000000        1.25602800000000       -3.94096300000000
H           -4.90458100000000        1.19559300000000       -3.65134400000000
H           -6.88748500000000        0.76889600000000       -2.26166700000000
H           -6.61070600000000       -0.07097100000000        0.05808800000000
H           -4.38985900000000       -0.50174100000000        0.95730800000000
H           -0.42451700000000       -0.62325400000000        4.02375000000000
H           -1.54330200000000       -2.71202300000000        4.37844500000000
H           -2.78908300000000       -4.62097700000000        3.55904900000000
H           -3.89643000000000       -5.83548000000000        1.73184800000000
H           -3.97174100000000       -4.84336800000000       -0.54237100000000
H           -2.97270700000000       -2.66582800000000       -0.97028700000000
H            0.69152100000000        1.17396800000000        3.59455700000000
H            0.32240600000000        2.62285500000000        2.68432900000000
H           -0.98633800000000        1.77548600000000        3.48043300000000
H            0.48934400000000       -2.99747500000000        0.32340000000000
H            0.75759700000000       -4.32043800000000       -1.72468400000000
H            3.03055500000000       -4.85674100000000       -2.57572700000000
H            5.02067300000000       -4.08774300000000       -1.34571000000000
H           -0.43114300000000        3.09343400000000       -1.18742500000000
H           -1.10260300000000        2.55845800000000        0.34016900000000
H           -0.00383400000000        4.49839500000000        1.50695600000000
H           -1.24710600000000        4.94462900000000        0.33895500000000
H            0.95232400000000        6.24946800000000        0.21284500000000
H            0.34974800000000        5.57783900000000       -1.31188300000000
H            3.05591300000000        6.36974800000000       -1.18954000000000
H            5.21150400000000        5.25196800000000       -1.63416300000000
H            5.41929600000000        2.80630400000000       -1.27351000000000
H            3.53711600000000        1.50775100000000       -0.50894800000000
79
 energy: -129.408835724973 gnorm: 0.065431969311 xtb: 6.7.1 (edcfbbe)
C            1.50635320072743       -0.18093533055758       -1.68422083837603
N            0.46707963633697        0.01389811538365       -0.67577010497341
C           -0.86850316911197        0.14763187220637       -1.15788096687955
C           -1.08818742161295        0.68385579716228       -2.43870246743220
C           -2.35650055072007        0.85177825722282       -2.93640233127562
C           -3.47563409711074        0.55705268209933       -2.14804931677121
C           -4.77134588087257        0.80373345000241       -2.64024873033722
C           -5.87984376349363        0.56720423059792       -1.86276765781106
C           -5.71306064808928        0.09231771029748       -0.56252268383887
C           -4.45067233325987       -0.17021917363748       -0.06602462822569
C           -3.28603835403068        0.02185449652692       -0.84398681960000
C           -1.95478192455032       -0.25482043224786       -0.36971945200281
C           -1.74315907461602       -0.97885363564583        0.88048566190381
C           -0.99169432443004       -0.42007057787840        1.92639349655949
C           -0.95249958895858       -1.05347813067169        3.17883088766608
C           -1.59100233277238       -2.24826446265141        3.39671282949063
C           -2.25582453474513       -2.90200093387740        2.35246703596922
C           -2.83541702465856       -4.16629743092867        2.56851897542463
C           -3.45212012722327       -4.84543862449711        1.54523259793443
C           -3.48908413182228       -4.27672730248258        0.27280282969336
C           -2.93766459773449       -3.03077455366299        0.04287865668770
C           -2.32487459928886       -2.28189895332245        1.07465451952251
N           -0.30218427040832        0.81959235909966        1.72707361612621
C           -0.05515156171551        1.62229002805470        2.92830385361990
P            0.96748334717317        0.86281046930149        0.65848207486926
S            2.77031808449862        0.12862754166799        1.53207235886461
S            2.26973472034126       -1.77981604901355        2.13109724205022
C            2.61250357606724       -2.75549914516547        0.66841936789049
C            1.49842607881272       -3.21756864564717       -0.02940320352707
C            1.64533978690162       -3.97107115597476       -1.18335070306110
C            2.91452747960192       -4.26764919797219       -1.65373195060098
C            4.03064645851526       -3.83101753198756       -0.95522620042230
C            3.89767977482319       -3.08671568236161        0.21982309435086
C            5.15202745464770       -2.65760120797830        0.93998488361517
F            5.44134562712226       -1.35074304219287        0.73533165191769
F            6.24240143440316       -3.34100115473493        0.52180123043477
F            5.09970883227641       -2.83496909431588        2.27619425279791
N            1.03959226117784        2.45240543668721        0.17757649901895
C           -0.25372956826098        3.08777391554255       -0.10264559906543
C           -0.25210987098290        4.50473282790743        0.44360512932813
C            0.76545892877871        5.32513779576833       -0.32742873929654
C            2.05184482085318        4.57097575373757       -0.53646710434048
C            3.14757052861446        5.28666910970214       -1.01567557802383
C            4.35656787591681        4.66645844195162       -1.27020622263891
C            4.46702869470513        3.30325925416052       -1.06454637237162
C            3.37869108063499        2.57679115256896       -0.59787035118429
C            2.16029908288334        3.18912393689425       -0.30669950654766
H            2.43187967413913       -0.52880302562384       -1.21881740672562
H            1.73853012919935        0.74014528445726       -2.22907203943934
H            1.18844304963167       -0.94440508716169       -2.39518949240468
H           -0.26087377947653        0.97841273097003       -3.06883085336712
H           -2.48347689169762        1.24584158495837       -3.93543471145341
H           -4.89776036513718        1.19445071627480       -3.64129821614001
H           -6.86982349789407        0.76309513706014       -2.25384953453272
H           -6.57924175819413       -0.07189887688958        0.06443047707191
H           -4.37002760827161       -0.51623640447561        0.95628507558741
H           -0.42119559498429       -0.61648259032368        4.01151603231467
H           -1.54545314218365       -2.69799853014805        4.37853465569316
H           -2.78625535058097       -4.61498963442833        3.55153184725774
H           -3.89147553306987       -5.81761738077598        1.72659929175607
H           -3.95407944866397       -4.81509916101339       -0.54239098844605
H           -2.97281462410405       -2.63999194382498       -0.96592354207983
H            0.68705830944776        1.17387122112482        3.59580266536948
H            0.31503101175010        2.61221230371394        2.65305146928035
H           -0.99083952525490        1.75640684767744        3.47277967035748
H            0.50342593023134       -2.98903375604983        0.33178367983243
H            0.76732832002927       -4.31752838942458       -1.71164939852722
H            3.03763121271458       -4.84659216578200       -2.55889331104806
H            5.01649966611146       -4.08107467984899       -1.32590521159563
H           -0.41872027421039        3.10422200798035       -1.18604869804029
H           -1.07699414772631        2.52415407968352        0.34407200402722
H           -0.00135866242701        4.49489956424158        1.50689781849562
H           -1.24935634799152        4.93698944130082        0.34087274285246
H            0.96444799845437        6.25996401680016        0.20047830129763
H            0.35597709511660        5.58489207716523       -1.30954104362819
H            3.04788320708025        6.35060744535253       -1.18332627714731
H            5.20050709676794        5.23913280017245       -1.62967630660743
H            5.40004467265761        2.79656608548842       -1.26696295732579
H            3.51351816319270        1.50934409621070       -0.48101795981682
79
 energy: -129.416823446959 gnorm: 0.017905893489 xtb: 6.7.1 (edcfbbe)
C            1.50475885632607       -0.21133747578542       -1.69039456899899
N            0.45545816725470       -0.04782277263843       -0.68421274139100
C           -0.88273811234412        0.13101999871894       -1.15978758167350
C           -1.08375132237620        0.68536786034149       -2.43702770230982
C           -2.34085543135966        0.85285953255628       -2.93282559354602
C           -3.46994656285184        0.55379819510293       -2.14664465918942
C           -4.77022083809042        0.79984010908082       -2.63181284373619
C           -5.86351327235582        0.56004372997393       -1.85215836289803
C           -5.68526662710867        0.07898631911302       -0.54717889745991
C           -4.43563161147923       -0.18805674068932       -0.05535136098792
C           -3.28145218819758        0.01313753087193       -0.84214655437484
C           -1.95323272840478       -0.26228140158958       -0.38166177752827
C           -1.74021458714318       -0.98535397064179        0.89198676185162
C           -0.99317187064245       -0.44051504231665        1.92127206360779
C           -0.93888588849012       -1.06266584768594        3.17948240649762
C           -1.57790566849611       -2.24362140501969        3.40028374038271
C           -2.25175501582730       -2.90226329075281        2.35476039110134
C           -2.83746532980837       -4.16702911282668        2.56202345637111
C           -3.44892832694817       -4.82974452664486        1.53865450166394
C           -3.48215556810265       -4.24644535955589        0.26371119757555
C           -2.94002121578998       -3.01005148302857        0.03629819031150
C           -2.32360509705646       -2.27980540080042        1.07569010209204
N           -0.31421402064160        0.80965350768930        1.72918860403001
C           -0.05950851656216        1.62015565969524        2.92356695144354
P            0.93066759023648        0.87607670654350        0.62779356042097
S            2.75403368309827        0.14120641850004        1.45803477473454
S            2.27020674866961       -1.74619062863258        2.10717850334599
C            2.60617479443456       -2.75061077931474        0.65599884789125
C            1.49416350254505       -3.21178069255885       -0.03157831012327
C            1.64426423854516       -3.96931274625814       -1.17877646501530
C            2.91333038789228       -4.26477788404044       -1.64653784052587
C            4.02705818331558       -3.83051263760334       -0.94937642706403
C            3.88751714587189       -3.08603264392245        0.21434748076235
C            5.13917301343069       -2.65403429749434        0.93939762700040
F            5.40828462186597       -1.34865428461027        0.73345964500848
F            6.21672296632853       -3.32808923742308        0.52461605329752
F            5.06772866375608       -2.82238246527860        2.26468848783320
N            1.04403139742520        2.47831725252457        0.17302789130694
C           -0.25519819483930        3.10091277531766       -0.10708124379739
C           -0.25837485859801        4.51582461720398        0.44653603775998
C            0.76504715958981        5.33420366853614       -0.32439208054980
C            2.05102940206093        4.57999916856954       -0.52955529132833
C            3.14925740458430        5.27997196485667       -1.00651446499814
C            4.35416299736790        4.65743769531982       -1.26262392966173
C            4.46180297168656        3.29504867560295       -1.04980882991598
C            3.37661643543275        2.57903043923283       -0.58132912391212
C            2.17120179364408        3.20782022099992       -0.29760415130658
H            2.42005798290333       -0.55454909775762       -1.20579748540227
H            1.73754648089341        0.71627630141758       -2.22428009856211
H            1.18364010498885       -0.96587240353747       -2.40386861628900
H           -0.24555027463891        0.97083563663177       -3.05088858164987
H           -2.47931276566210        1.24420324174862       -3.92811724730183
H           -4.88483549771261        1.19288762974178       -3.63035013117414
H           -6.85492651251527        0.75392575688643       -2.23226567842658
H           -6.55076670740875       -0.07722191015507        0.07814155601628
H           -4.33900675688361       -0.54224758387826        0.95875279325973
H           -0.39980132576643       -0.61208651078211        3.99506214674757
H           -1.54703037441595       -2.69644932051051        4.37767756323109
H           -2.78165271863337       -4.60678499986240        3.54554780060003
H           -3.89038743671080       -5.79995908337696        1.70748913586939
H           -3.94079039992228       -4.78729062276276       -0.54986258521600
H           -2.97321713403310       -2.60141112222623       -0.96176769261145
H            0.68419793312188        1.17800146639768        3.59183617948030
H            0.30681783325041        2.60123571095349        2.61907631331482
H           -0.99619723707605        1.74521607559310        3.46353423724117
H            0.50879289753711       -2.97241697361368        0.33751772943093
H            0.77059862566499       -4.31924406983256       -1.70444627658075
H            3.04091110872999       -4.84250382400011       -2.54755385377182
H            5.01363919953682       -4.07903324656078       -1.30650247415559
H           -0.41780127273184        3.12598107376912       -1.19038293432249
H           -1.05411003004871        2.50446960525671        0.34184921613080
H           -0.00198121181501        4.49660934784102        1.50649897616704
H           -1.25476522864613        4.94386250912541        0.34443646459152
H            0.97107073198838        6.26932959874819        0.19578833537211
H            0.35958748379391        5.59365263654341       -1.30670706110971
H            3.04361991325362        6.33937840564989       -1.18076275590251
H            5.19356571614065        5.22548812751827       -1.62934794758328
H            5.38680627478937        2.78313196309133       -1.25880224515094
H            3.48660532618002        1.51124476270378       -0.44711825623975
79
 energy: -129.418915539956 gnorm: 0.015247771712 xtb: 6.7.1 (edcfbbe)
C            1.50695554106154       -0.24722302032201       -1.69345987430541
N            0.45948387986444       -0.08782043064847       -0.68559602151266
C           -0.87664318247096        0.11826000676471       -1.16305427045854
C           -1.07425189802958        0.68190534681238       -2.43827358225768
C           -2.33272777216996        0.85540642646269       -2.92854452392207
C           -3.46080509930556        0.55168264421612       -2.14022055359335
C           -4.76419173590841        0.79602444362833       -2.61906073403264
C           -5.85245031590451        0.55195136039882       -1.83286050023553
C           -5.66868630735488        0.06569093477026       -0.52875426023418
C           -4.41829830187498       -0.20366946220720       -0.04442882988835
C           -3.27074998283640        0.00790381347062       -0.83889033845910
C           -1.94400269464273       -0.26833091254669       -0.38415925689976
C           -1.73001286570339       -0.98985369545771        0.89362723688408
C           -0.98195267898438       -0.44831631383271        1.91757823570649
C           -0.92141995651950       -1.07004970432502        3.17809648970548
C           -1.56706988460523       -2.24791295705547        3.39948557826336
C           -2.24631516441402       -2.90260765133882        2.35302354793009
C           -2.83780197330340       -4.16638914294840        2.55335499222071
C           -3.44977298932476       -4.82025279955285        1.52384381860999
C           -3.48231867214407       -4.22995435867688        0.25026015832030
C           -2.93938206582600       -2.99464886237265        0.03023022218116
C           -2.31770558251069       -2.27878388228437        1.07655627965375
N           -0.30770008133084        0.80277192907416        1.72344743351682
C           -0.05939600162052        1.62211696374994        2.91197647492581
P            0.92286347605625        0.87769105759528        0.60800850051098
S            2.76583097907475        0.16371265804787        1.40505929732667
S            2.25505786200423       -1.70417865342520        2.08450047870252
C            2.58999187620354       -2.73464580587603        0.64768299597941
C            1.47962233037029       -3.20172231299777       -0.03757091452729
C            1.63511567557630       -3.96978957938384       -1.17827000424146
C            2.90556955580533       -4.26811062184499       -1.64063561773638
C            4.01791720195463       -3.83118615302584       -0.94208386055730
C            3.87168434651765       -3.07698770387745        0.21500714300172
C            5.11902725219483       -2.63806007262140        0.94506124775965
F            5.37765792384431       -1.33125755384616        0.73362933428682
F            6.19822092685238       -3.30617363553380        0.53881277644566
F            5.03593224671646       -2.79974303439137        2.26840796137529
N            1.03776114804314        2.48276753570324        0.16710119936866
C           -0.26096693696950        3.10948349665076       -0.11242398380894
C           -0.26266903717180        4.52349720289125        0.44772770697770
C            0.76318956993423        5.34295640127456       -0.32111389233513
C            2.04722526736001        4.58575851900488       -0.52468263390120
C            3.15177561083992        5.27948708560541       -1.00183478544520
C            4.35399995469440        4.65051482753667       -1.25620445238061
C            4.45919082635020        3.28830235635754       -1.03636991087574
C            3.37070397964677        2.57920988468482       -0.56649152057067
C            2.16634163177146        3.21362900263469       -0.29458686286800
H            2.41650353323006       -0.59797054692990       -1.20666895398393
H            1.74366979110217        0.68193515985523       -2.22164536899910
H            1.18164413479661       -0.99668802935892       -2.41099539612229
H           -0.23041373488298        0.96496044240030       -3.04482768714698
H           -2.47967492679080        1.25025545689035       -3.92169771028554
H           -4.87778111331196        1.19122025800991       -3.61722976908236
H           -6.84733326635151        0.74313796215292       -2.20386483617809
H           -6.53303704963495       -0.09249744622418        0.09728354530906
H           -4.30776519779109       -0.56916587383065        0.96487538390142
H           -0.37358602103898       -0.61587362439879        3.98529572014334
H           -1.54287071312972       -2.70507700168358        4.37568999888072
H           -2.78142060309795       -4.60640495235650        3.53714145580030
H           -3.89586886155420       -5.78956803850663        1.68214318550313
H           -3.94251897576010       -4.76713999146526       -0.56451156673983
H           -2.97274487355405       -2.56869159506109       -0.96111627834027
H            0.68693017344270        1.18931761151087        3.58300750577066
H            0.29955684547415        2.60057552417880        2.59508433379243
H           -0.99810476248597        1.74310363973937        3.44997355356848
H            0.49604557485056       -2.95714463395368        0.33196002661659
H            0.76387501064726       -4.32643073886555       -1.70323410556680
H            3.03745500908050       -4.84910381238585       -2.53884617234816
H            5.00763549991489       -4.08252284754395       -1.28967629487921
H           -0.42383122661606        3.14506587145514       -1.19544667081519
H           -1.05451313090922        2.50632874450017        0.33333534793459
H           -0.00495955457594        4.50065304347174        1.50729670520226
H           -1.25745455853898        4.95508874302622        0.34742209778942
H            0.97259702077645        6.27812044619542        0.19854703748845
H            0.36045964782208        5.60422574690038       -1.30422540379633
H            3.04959040838143        6.33919544568609       -1.17815520919585
H            5.19437836074495        5.21382077360014       -1.62664302356098
H            5.38215443232934        2.77125301485420       -1.24235957246289
H            3.46755924562039        1.51296467119484       -0.42081680280168
79
 energy: -129.420513499471 gnorm: 0.012357630623 xtb: 6.7.1 (edcfbbe)
C            1.51334686916615       -0.29888280474445       -1.69815940850209
N            0.47161423643447       -0.13006851085249       -0.68748287049227
C           -0.86118652661380        0.10613264245183       -1.16804910579473
C           -1.06065866941750        0.67844831065386       -2.43966106120344
C           -2.32328812335039        0.86107497086370       -2.91987222239589
C           -3.44757298423467        0.55239422112408       -2.12729802615458
C           -4.75533142374479        0.79304187451614       -2.59718178775356
C           -5.83752050994128        0.54069843102950       -1.80285467416339
C           -5.64752556032702        0.04701249901076       -0.50210033566385
C           -4.39328108619755       -0.22082328228547       -0.02756179583862
C           -3.25374561917128        0.00435594866156       -0.83102324473110
C           -1.92718511984091       -0.27420954409710       -0.38462221950255
C           -1.71043997385900       -0.99628629944014        0.89046454381407
C           -0.95900327183919       -0.45635443399635        1.91083277649149
C           -0.89547192226590       -1.08080820186753        3.17214528241580
C           -1.54890086223726       -2.25635355432676        3.39297408547850
C           -2.23506892504214       -2.90490466088293        2.34634386016030
C           -2.83601898638655       -4.16606548528374        2.53895834339302
C           -3.45156830717991       -4.80890710596036        1.50275251621535
C           -3.48473504092665       -4.21237166981148        0.23196561852182
C           -2.93466974051874       -2.97910965759401        0.02045846440245
C           -2.30499826619957       -2.27973649855863        1.07354477651610
N           -0.28935891905759        0.79417665675231        1.71096486537721
C           -0.05573700577739        1.62676500284631        2.89201816600647
P            0.92335842347261        0.88164209661708        0.58094756082265
S            2.75064010669704        0.16743753205328        1.38376002133673
S            2.23385231997072       -1.68879121496616        2.07998069197726
C            2.56394786667939       -2.71719423646671        0.64059996283857
C            1.45572309923687       -3.19174814194386       -0.04399405212944
C            1.61896332664914       -3.97109141072358       -1.17703200091658
C            2.89158522826892       -4.27331623392558       -1.63116938943947
C            4.00149527536158       -3.83037363393593       -0.93136686012139
C            3.84696974795328       -3.06268372380566        0.21715880383596
C            5.08697927720424       -2.61063374983571        0.95302555585635
F            5.33346855662557       -1.30071659382897        0.73405294536225
F            6.17424173323966       -3.26961697964931        0.55942109588920
F            4.99249478300584       -2.76403319896397        2.27637880119634
N            1.02558842049786        2.48750676048882        0.15441092959737
C           -0.27143009790273        3.12289164917173       -0.12073128119409
C           -0.26732435664222        4.53467534059377        0.44878839384106
C            0.76067283738974        5.35566077517506       -0.31727474691077
C            2.04204424281260        4.59529303180467       -0.52206210511727
C            3.15449113051006        5.28391126983645       -0.99557923648088
C            4.35427611399549        4.64844401820241       -1.24618121176639
C            4.45643667002499        3.28657442441029       -1.02287698580126
C            3.36105553901804        2.58443579455284       -0.56084728440004
C            2.15569178917610        3.22164804116372       -0.29847921201642
H            2.41701014960794       -0.66692943500298       -1.21526268414589
H            1.76018364555500        0.62782917905007       -2.22420455531675
H            1.17579638558506       -1.04237968902994       -2.41797207576519
H           -0.21310766967425        0.95784521107013       -3.04270743115258
H           -2.47924297901475        1.26316707528150       -3.90950288318340
H           -4.87378828731547        1.18979465382975       -3.59461704309786
H           -6.83710319749138        0.72824614480988       -2.16283858866166
H           -6.50928959782012       -0.11865746440946        0.12573524712073
H           -4.26638254490969       -0.59878933186425        0.97595710241564
H           -0.33651523962049       -0.62680083405734        3.97179560471048
H           -1.52777511433457       -2.71849706469380        4.36774653266154
H           -2.78268399813767       -4.60998120273835        3.52175956354960
H           -3.90420191664937       -5.77689452758142        1.64970656677527
H           -3.95060855965201       -4.74224770982804       -0.58448283895842
H           -2.96627424799531       -2.53535652910681       -0.96350433653399
H            0.69331316226749        1.20856943293879        3.56918195236103