117
 energy: -168.689413046563 gnorm: 0.140433572778 xtb: 6.7.1 (edcfbbe)
C            0.37846100000000       -2.62419700000000        1.43036300000000
N            1.12204000000000       -1.53053400000000        0.80028400000000
C            2.54196200000000       -1.64097500000000        0.95015800000000
C            3.10840100000000       -2.40063500000000        1.99426000000000
C            4.48059900000000       -2.46252500000000        2.20757400000000
C            5.35043600000000       -1.74244100000000        1.40041300000000
C            6.72934500000000       -1.75824800000000        1.68521400000000
C            7.63003300000000       -1.01610900000000        0.92652300000000
C            7.15674600000000       -0.24646400000000       -0.12232000000000
C            5.78942100000000       -0.23163100000000       -0.41235900000000
C            4.83574900000000       -0.99340100000000        0.31611400000000
C            3.41258800000000       -0.99607200000000        0.02839500000000
C            2.89194700000000       -0.40980900000000       -1.17017700000000
C            1.94395700000000        0.64679500000000       -1.09791500000000
C            1.68142100000000        1.39443900000000       -2.26228300000000
C            2.23344500000000        1.06980200000000       -3.49458600000000
C            3.05287500000000       -0.04246500000000       -3.62604500000000
C            3.54193600000000       -0.39514100000000       -4.89678000000000
C            4.35666900000000       -1.50992800000000       -5.06756200000000
C            4.67943500000000       -2.28886400000000       -3.96823700000000
C            4.19348500000000       -1.94381400000000       -2.70369400000000
C            3.38449200000000       -0.79949000000000       -2.47697000000000
N            1.30142900000000        0.98099000000000        0.12644200000000
C            1.02217800000000        2.40087700000000        0.30991400000000
P            0.38672700000000       -0.05870100000000        1.02113000000000
S            0.38282200000000        0.42891700000000        3.07886900000000
S            2.36006500000000        0.53481300000000        3.62493000000000
C            2.79531700000000        2.23618700000000        3.32686300000000
C            2.11426500000000        3.28213500000000        3.96408300000000
C            2.48287900000000        4.60794700000000        3.73003200000000
C            3.53449100000000        4.89530000000000        2.86055400000000
C            4.22611900000000        3.85968900000000        2.23099600000000
C            3.85913100000000        2.53255500000000        2.46753300000000
N           -1.12487500000000       -0.15550200000000        0.32853600000000
C           -1.29290800000000       -0.52712200000000       -1.11906100000000
C           -2.28460800000000       -1.70868900000000       -1.40251300000000
C           -1.79351100000000       -3.11805100000000       -1.16962600000000
C           -0.62035500000000       -3.59363600000000       -1.77370200000000
C           -0.19875000000000       -4.91044900000000       -1.57537900000000
C           -0.94559100000000       -5.77035400000000       -0.77451700000000
C           -2.11927700000000       -5.31637800000000       -0.17966000000000
C           -2.54754800000000       -4.00365900000000       -0.38317500000000
C           -1.73955200000000        0.71032000000000       -1.96225500000000
C           -1.66073500000000        0.65287800000000       -3.47815700000000
C           -2.40542500000000        1.58781400000000       -4.21652500000000
C           -2.36190900000000        1.59944500000000       -5.61285600000000
C           -1.56940600000000        0.67938400000000       -6.29167600000000
C           -0.81378000000000       -0.24235300000000       -5.57737300000000
C           -0.85528600000000       -0.24807700000000       -4.18130600000000
C           -2.39904900000000        0.27554000000000        0.98315000000000
C           -2.34886200000000        1.75935400000000        1.44253600000000
C           -3.67609400000000        2.48500900000000        1.54525100000000
C           -4.11359000000000        2.98117000000000        2.78046200000000
C           -5.32997500000000        3.65951300000000        2.88891300000000
C           -6.11747800000000        3.86276600000000        1.75923900000000
C           -5.68668800000000        3.39534900000000        0.52046700000000
C           -4.47121500000000        2.71541100000000        0.41258300000000
C           -2.79966800000000       -0.73330800000000        2.09762500000000
C           -4.17668800000000       -0.55589700000000        2.69884400000000
C           -5.32678700000000       -0.66675700000000        1.91030100000000
C           -6.59385000000000       -0.48274800000000        2.46700600000000
C           -6.72146300000000       -0.20294900000000        3.82714300000000
C           -5.58840800000000       -0.11143000000000        4.62879500000000
C           -4.32038600000000       -0.28969500000000        4.06975300000000
H            0.75463400000000       -3.60282100000000        1.11006900000000
H           -0.67285200000000       -2.58883400000000        1.15771600000000
H            0.40075900000000       -2.56458300000000        2.52574200000000
H            2.49353000000000       -2.93366800000000        2.71056400000000
H            4.85513900000000       -3.04464900000000        3.04921500000000
H            7.11048700000000       -2.34466000000000        2.52198300000000
H            8.68930100000000       -1.03488400000000        1.16613100000000
H            7.84121000000000        0.35168700000000       -0.71253400000000
H            5.46737100000000        0.40748200000000       -1.23108200000000
H            0.99823600000000        2.23685300000000       -2.24560800000000
H            1.96506600000000        1.67444600000000       -4.35717800000000
H            3.27684700000000        0.19907500000000       -5.76881800000000
H            4.72770100000000       -1.76910600000000       -6.05629900000000
H            5.30719500000000       -3.16752000000000       -4.08584200000000
H            4.45282200000000       -2.60159100000000       -1.87811400000000
H            0.74639000000000        2.63949300000000        1.33643600000000
H            1.90207800000000        3.00839800000000        0.07951500000000
H            0.19530400000000        2.74311900000000       -0.31527400000000
H            1.29898500000000        3.07019100000000        4.65202500000000
H            1.94419400000000        5.41560300000000        4.22046400000000
H            3.82292900000000        5.92820400000000        2.67769400000000
H            5.04969000000000        4.08006600000000        1.55466900000000
H            4.39929100000000        1.72936300000000        1.96527900000000
H           -0.31005700000000       -0.83414400000000       -1.47772800000000
H           -2.59272500000000       -1.68982000000000       -2.45466700000000
H           -3.21925800000000       -1.55353400000000       -0.85381100000000
H           -0.01441300000000       -2.94378100000000       -2.40094700000000
H            0.72062500000000       -5.25687500000000       -2.04376600000000
H           -0.60944900000000       -6.79211900000000       -0.61755600000000
H           -2.70496100000000       -5.98977300000000        0.43889600000000
H           -3.46704700000000       -3.67354800000000        0.09196500000000
H           -1.17156700000000        1.59071500000000       -1.64977000000000
H           -2.78759600000000        0.92026800000000       -1.72111900000000
H           -3.02528400000000        2.32414400000000       -3.70304500000000
H           -2.94471600000000        2.33099900000000       -6.16714200000000
H           -1.53821100000000        0.68600400000000       -7.37919100000000
H           -0.18772100000000       -0.95856300000000       -6.10095500000000
H           -0.23348800000000       -0.97232200000000       -3.66338700000000
H           -3.20398400000000        0.22511000000000        0.24561000000000
H           -1.83535300000000        1.84844900000000        2.40009300000000
H           -1.75642900000000        2.33954600000000        0.72856600000000
H           -3.51485200000000        2.82663300000000        3.67256700000000
H           -5.65900000000000        4.02173600000000        3.85877900000000
H           -7.06652500000000        4.38084400000000        1.84849100000000
H           -6.29886200000000        3.55427100000000       -0.35986200000000
H           -4.15569900000000        2.36568100000000       -0.56658800000000
H           -2.06696400000000       -0.73450000000000        2.90732600000000
H           -2.77805200000000       -1.75291100000000        1.69126800000000
H           -5.25101300000000       -0.88705700000000        0.85054100000000
H           -7.47619700000000       -0.54968700000000        1.84119500000000
H           -7.70532600000000       -0.05142000000000        4.26001500000000
H           -5.68429700000000        0.10136400000000        5.69186600000000
H           -3.44503100000000       -0.21327600000000        4.71106600000000
117
 energy: -168.713359783369 gnorm: 0.060131230953 xtb: 6.7.1 (edcfbbe)
C            0.37452964055184       -2.62837824900421        1.42541984694240
N            1.13209844077838       -1.55227975775687        0.78379182549700
C            2.55848199695470       -1.63298182983497        0.95309594458777
C            3.10628998069179       -2.38038874236583        2.01122518441227
C            4.46187511510064       -2.45801432068435        2.21566064728787
C            5.34902058812077       -1.74262627154702        1.40353169804733
C            6.72978550706398       -1.75398816588733        1.68280760231281
C            7.61154115356321       -1.02000539472513        0.92592948549247
C            7.12390942674299       -0.24695395262704       -0.12672267745111
C            5.77443743127624       -0.23477902045102       -0.42568767706125
C            4.83492981125077       -0.99741286388743        0.30827596607626
C            3.41839065264673       -1.00963606496880        0.03508125195291
C            2.90002384604325       -0.39639555784648       -1.18165332210833
C            1.96040253625401        0.64177358858883       -1.11644514056813
C            1.66672606859360        1.38595904796574       -2.27079314882502
C            2.21571902236625        1.07340893146086       -3.48839305337502
C            3.05132075955789       -0.04046955767490       -3.62813665797029
C            3.54351485177303       -0.40088901833904       -4.89689973234443
C            4.35017535470255       -1.50237094031234       -5.05470580099376
C            4.66872178651761       -2.27964898521791       -3.94163399249718
C            4.19934354323097       -1.93953780780484       -2.68717222135763
C            3.39557976213576       -0.79597850712784       -2.47414717606833
N            1.32174801167092        0.98605002716109        0.11143424387389
C            1.02984812800201        2.40317813349270        0.30969955840527
P            0.37595607547364       -0.07812320269843        0.96202710589459
S            0.35477355518882        0.47916734762931        3.03445822549160
S            2.34392012227121        0.54160571409508        3.57625985116715
C            2.79216788282919        2.24943095703460        3.31398737402541
C            2.11661461502054        3.28110768131369        3.95985818639868
C            2.48359710002364        4.59735586546604        3.72428289636300
C            3.53313198090800        4.88431443846026        2.86228644559496
C            4.22012003183773        3.85339875560441        2.23625721940348
C            3.85044614940626        2.53457835114400        2.45835896203710
N           -1.16046695017548       -0.16313397745342        0.31004158361725
C           -1.29367525406508       -0.52880847490473       -1.13558578931187
C           -2.27670621870227       -1.70468654774130       -1.39324987919012
C           -1.77769496185483       -3.11046296895002       -1.14799786246571
C           -0.61720698843611       -3.58803703896513       -1.75521947841530
C           -0.20176083229167       -4.89866002690366       -1.56584892732729
C           -0.94560521563409       -5.75913651979731       -0.77374715716374
C           -2.11417623954161       -5.30626076882058       -0.18335204672560
C           -2.52851676861202       -3.99531792662715       -0.37307890859020
C           -1.74664498784557        0.70647669771683       -1.95907062592050
C           -1.65529863052005        0.64415476843385       -3.47522575729613
C           -2.39648585915883        1.57408380726241       -4.21044596647816
C           -2.35357309911318        1.59297960289873       -5.59721497325500
C           -1.56683742676049        0.67911761022151       -6.27948020626443
C           -0.81393482855804       -0.23760711447658       -5.56624683675738
C           -0.85318066536223       -0.24840456396443       -4.17732816477495
C           -2.41208317050108        0.27313481569539        0.99233377927303
C           -2.34927893432982        1.75126537377640        1.44968818327414
C           -3.68675888090410        2.46059410469136        1.55339898532879
C           -4.12162998310452        2.96196344123276        2.77724995342441
C           -5.32366800111491        3.64760268547154        2.88278165311738
C           -6.10844055723418        3.85190562118152        1.76013235218072
C           -5.67682947788354        3.38360773450170        0.52970960039728
C           -4.47324086646885        2.70004388743815        0.42685547250089
C           -2.79720971258447       -0.72905134803748        2.10420463527589
C           -4.17491779702174       -0.52763720467565        2.69705468002364
C           -5.32089215215978       -0.64776201998464        1.91530932512008
C           -6.58084167583018       -0.47590131669518        2.46980100871645
C           -6.71222108745467       -0.19912364668975        3.82163990231572
C           -5.58258773336933       -0.11006349779815        4.61734112825881
C           -4.32293456462929       -0.27424184401219        4.05869794476423
H            0.76642319902903       -3.59399910626558        1.10568472696473
H           -0.67148730009018       -2.57815423025497        1.12490519782697
H            0.40189132564436       -2.56934568728436        2.51977867356418
H            2.47995630074141       -2.92425342017418        2.70195302293595
H            4.83931437174175       -3.05031223429262        3.03872344984469
H            7.10053109884735       -2.33914304189782        2.51486229428791
H            8.66880267361842       -1.03544407498623        1.15805976553471
H            7.80818398579301        0.34994820976862       -0.71411485459172
H            5.44470783948594        0.39782998552371       -1.23921777040136
H            0.99969808336229        2.23398741162779       -2.23427735232909
H            1.96634482437824        1.68127472944330       -4.34672213813505
H            3.27540798853394        0.19475891690216       -5.75938536571591
H            4.72257798205320       -1.76583733131649       -6.03672779592168
H            5.28958133229142       -3.15766067576616       -4.06129604423252
H            4.45260167091263       -2.58765268519938       -1.85893994161277
H            0.75460605237468        2.61014665081506        1.34616905902976
H            1.91411412155074        2.99924120665409        0.07833125032883
H            0.20380280215905        2.75076800355111       -0.31672927671044
H            1.30297571917323        3.06272648475429        4.64006572605386
H            1.95156157276661        5.39942715039327        4.21802557795901
H            3.81946604301046        5.91225740713524        2.68135112149571
H            5.04112199424815        4.07256546529120        1.56684521562832
H            4.38914650053650        1.73068845039874        1.97022780488012
H           -0.29633213182201       -0.83196938839692       -1.46603543639333
H           -2.55744189721583       -1.65563346545200       -2.45253722114421
H           -3.20497297435380       -1.55116250694274       -0.83680486460731
H           -0.02491045682486       -2.94318777375453       -2.39222668450998
H            0.70580077221067       -5.24767565825952       -2.04240836383879
H           -0.61666001714155       -6.77903979095178       -0.62290001877195
H           -2.70328500018641       -5.97685624923595        0.42807047099920
H           -3.45459820126723       -3.66861174794459        0.08431496355708
H           -1.16772900207671        1.57711083761825       -1.63709005504094
H           -2.79139634698739        0.92028578139923       -1.71598109913179
H           -3.01641026569716        2.30203304716202       -3.69821773912512
H           -2.93780843283578        2.32012077256733       -6.14673941726032
H           -1.53906364034521        0.68566973928771       -7.36187712103469
H           -0.19140875575447       -0.95112676907283       -6.08895471672607
H           -0.23885125406560       -0.97029012810699       -3.65806147973707
H           -3.20107162077356        0.22211564802281        0.24083457416878
H           -1.83667739241675        1.82659852409081        2.41114557143073
H           -1.75498159582608        2.31091260694261        0.71903652738886
H           -3.51783937109483        2.81859960495968        3.66335407474914
H           -5.64828149449470        4.01710622928326        3.84635155520340
H           -7.05082989163601        4.37619537859984        1.84493218145742
H           -6.28135990902814        3.55063463958533       -0.35165955566925
H           -4.15030369992505        2.36229455148779       -0.55031500615283
H           -2.05371295074684       -0.70671378510319        2.90619204559843
H           -2.76856064125415       -1.73741792072625        1.67186112866965
H           -5.24331711996817       -0.88133932678135        0.86087707151491
H           -7.46090600316660       -0.55468495555540        1.84667970919438
H           -7.69357590583329       -0.05667517327317        4.25386747851660
H           -5.67888650622292        0.09514755295846        5.67602678697367
H           -3.44979588273856       -0.20936283190859        4.69620776474120
117
 energy: -168.721542227787 gnorm: 0.015587710646 xtb: 6.7.1 (edcfbbe)
C            0.36838803819004       -2.63305160440659        1.41103966448042
N            1.13464216975643       -1.56304345759414        0.76952910126704
C            2.56379533482687       -1.62567031086920        0.94983100746904
C            3.09536816131701       -2.36927475523406        2.02007552629022
C            4.44027485153104       -2.45277277739342        2.22182987536518
C            5.33795691891599       -1.74100321456899        1.40568299321846
C            6.72127686140870       -1.74970461695416        1.67722391077546
C            7.58790268625913       -1.01985536062556        0.91680222825937
C            7.08785230934675       -0.24757470687421       -0.14085188926163
C            5.75075363614987       -0.23752924661536       -0.44126981776417
C            4.82354612987493       -0.99795717838819        0.30577822752694
C            3.41353833450283       -1.01608410700150        0.04206373933954
C            2.89953793610618       -0.38253614479218       -1.18884046432695
C            1.97106635751782        0.64012164709529       -1.12870861644506
C            1.65401296825702        1.38525239766908       -2.27777158119682
C            2.20087328230131        1.07765245572924       -3.48593189147403
C            3.04771255605770       -0.03683964649403       -3.62654435431493
C            3.54481588056063       -0.40604491414535       -4.89217328129175
C            4.34685536844336       -1.50072045734512       -5.03555207132468
C            4.66311066036392       -2.27339913420532       -3.90934331592747
C            4.20410083498653       -1.93197352881771       -2.66440836448472
C            3.39830025734616       -0.78908423938994       -2.46915803807034
N            1.34816763402244        0.99592329413741        0.10854003326684
C            1.04679223249038        2.40982221030136        0.31228731605534
P            0.36919734774170       -0.08544183490806        0.91543508283115
S            0.33202911809006        0.51118178965240        2.97379602004859
S            2.31368766303179        0.54007497925778        3.51435288529452
C            2.77890159864637        2.25366548466229        3.28723828391961
C            2.10782205075714        3.27312024640106        3.94588517750683
C            2.48365179964005        4.58512412246521        3.72153277191447
C            3.53264459814873        4.87365727229863        2.86328708525653
C            4.21822171592908        3.84614312782075        2.23696347629343
C            3.84389994575236        2.53024626584897        2.44433070898145
N           -1.18416136218036       -0.16624102159792        0.30246285570860
C           -1.29559768446075       -0.52850258016406       -1.13798510993784
C           -2.26687775235087       -1.69754891825369       -1.39875285491749
C           -1.76550468627150       -3.09811580375970       -1.13946765867099
C           -0.60787212202696       -3.57577033421033       -1.74232931709693
C           -0.19715742958555       -4.88340604566737       -1.55601653792273
C           -0.94174476281927       -5.74424861469792       -0.76847015912175
C           -2.10650961850982       -5.28863466268983       -0.17792008541305
C           -2.51390032700877       -3.97883033456039       -0.36486241168609
C           -1.74392733150885        0.70021536805513       -1.95267028824218
C           -1.64765866285943        0.63455434478460       -3.46623376832477
C           -2.39057335986331        1.56041445462088       -4.19744299635461
C           -2.34832599763330        1.58506426692236       -5.57871114095790
C           -1.56105083406505        0.67653308637371       -6.26458570995552
C           -0.80869429831607       -0.23797738668929       -5.55163206339841
C           -0.84620521126714       -0.25419164415038       -4.16620189731385
C           -2.42275056323026        0.26973645349062        0.99375267259448
C           -2.34873874692137        1.73838697650526        1.45485508676561
C           -3.68733843924537        2.43910378283331        1.56154768101388
C           -4.12387189933690        2.93703254934398        2.78114252311597
C           -5.31915151849371        3.62602303225070        2.88379119818041
C           -6.10027155698024        3.83499879756001        1.76232345271835
C           -5.66707689835147        3.36345350377514        0.53623774793547
C           -4.46920812394786        2.67876196617626        0.43739692349999
C           -2.79172119426427       -0.72328911315481        2.10555662315366
C           -4.16667218355692       -0.51088030664616        2.69455159091460
C           -5.30962405987376       -0.63102921856275        1.91350070243468
C           -6.56607791653807       -0.46363904805442        2.46610923693041
C           -6.70185881359421       -0.19007508055512        3.81508748487506
C           -5.57289570267830       -0.09652037517302        4.60773319353969
C           -4.31704193180654       -0.25570007427985        4.04994801807417
H            0.77030143384844       -3.59255172412877        1.09314181708847
H           -0.66983326316599       -2.56909056468741        1.08608200017045
H            0.39027161674546       -2.57388679788842        2.50363148686807
H            2.45368999513400       -2.90054023800966        2.70168037952893
H            4.82581604073012       -3.04861464476102        3.03368120884849
H            7.08255088046803       -2.33463844498969        2.50907463695694
H            8.64486553531550       -1.02708772962446        1.13833808943175
H            7.77191025163000        0.35232793408550       -0.72271251106645
H            5.40784166254808        0.38363279638217       -1.25456326039754
H            0.98907653385469        2.22989393327819       -2.22253824626331
H            1.96402937307509        1.67892016679508       -4.34892665110545
H            3.27074475867229        0.19125101164683       -5.74839051109839
H            4.72288972683831       -1.77450861143199       -6.00984716094017
H            5.27545928405148       -3.15410011639768       -4.03110172086190
H            4.45383567561398       -2.56400068908616       -1.82594050991007
H            0.77536144895342        2.58656342047908        1.35499957338000
H            1.93458317042004        2.99640844286608        0.08074706765178
H            0.21920062529146        2.76436760885560       -0.30912575787102
H            1.29755115360278        3.04606580337328        4.62266774058816
H            1.95693400048766        5.38347160297937        4.22038355919171
H            3.81895204797609        5.89894196140308        2.68774053508029
H            5.04180921273337        4.06647358741073        1.57638450393807
H            4.37480905391457        1.72430958754948        1.96046242126555
H           -0.28581220431661       -0.82370533753021       -1.44582470227585
H           -2.53302143035449       -1.63778315694399       -2.46011227199143
H           -3.18773414274892       -1.54579831786021       -0.83406778128759
H           -0.02293210132178       -2.93203430331315       -2.38273608903929
H            0.70032974865245       -5.23676507265996       -2.04119328410988
H           -0.62435769356522       -6.76654882794575       -0.62908524763811
H           -2.70556835164734       -5.95894511565343        0.42018989782822
H           -3.44090756614525       -3.65024107948015        0.08534889020036
H           -1.15894895383155        1.56470688176787       -1.62440049143332
H           -2.78692606660034        0.91583885764332       -1.71038528492396
H           -3.01257896682662        2.27926731588394       -3.68250643336659
H           -2.93325254360533        2.31094586851547       -6.12351003090751
H           -1.53509122915386        0.68383203296620       -7.34355596440883
H           -0.18677865245514       -0.94874071033441       -6.07411046413354
H           -0.23663609377147       -0.97473252605010       -3.64443410847834
H           -3.20488722768106        0.21821154570400        0.23547689903838
H           -1.84072455095858        1.80114948809864        2.41940769994637
H           -1.75289397955716        2.28624605988338        0.71811406468207
H           -3.51886680185529        2.79501711861388        3.66428469516499
H           -5.63778353774875        4.00814721352679        3.84168534504482
H           -7.03408260434781        4.37144498632006        1.84079770688558
H           -6.26175965089475        3.54102656378405       -0.34817521386592
H           -4.14056307535743        2.34511444605635       -0.53726851798608
H           -2.04351590619355       -0.67706924205079        2.90203154551318
H           -2.75768469086511       -1.72733400014441        1.66933465998377
H           -5.22877032247881       -0.86792754746788        0.86148692745041
H           -7.44436374014836       -0.55729699118901        1.84476617486700
H           -7.68260573239516       -0.06253255109399        4.24784632222587
H           -5.67069306285473        0.09400144414609        5.66578289226751
H           -3.44387133643433       -0.19320641583405        4.68327905265458
117
 energy: -168.724535612301 gnorm: 0.014705299245 xtb: 6.7.1 (edcfbbe)
C            0.35475213102183       -2.63392347874314        1.38872603706136
N            1.12597372208594       -1.56005004317952        0.76051025254644
C            2.55258707982042       -1.61941992166698        0.94767457069133
C            3.07754298451850       -2.35885132634457        2.02664536333256
C            4.42174100962873       -2.44489607488011        2.22597131209056
C            5.32082739388301       -1.73692995797648        1.40478233705527
C            6.70585456750082       -1.74345926636810        1.66970162731567
C            7.56549856762719       -1.01296683094020        0.90225924679377
C            7.05986451541322       -0.24303530035725       -0.15725454883309
C            5.72469632876244       -0.23713917584630       -0.45400959994908
C            4.80635266753366       -0.99629638854686        0.30501290240162
C            3.39973572100505       -1.01353862158531        0.04463233339150
C            2.88957772039539       -0.37456101264469       -1.19029607458122
C            1.96690551338800        0.64555589993086       -1.13298432854505
C            1.64131020010910        1.38913937321924       -2.28306682127122
C            2.18890485775738        1.07741511657885       -3.48912264509265
C            3.04103432245181       -0.03637434536666       -3.62331145984914
C            3.54424384162972       -0.41292983468704       -4.88494712272323
C            4.34687112715055       -1.50844140996230       -5.01605812242170
C            4.66209054133452       -2.27503278266255       -3.88269697754954
C            4.20344987205919       -1.92530160095686       -2.64270170845763
C            3.39177717904750       -0.78355482220225       -2.46438071349153
N            1.36265748124347        1.00616545241075        0.11400203696834
C            1.06681533518141        2.41953955168933        0.31988088428821
P            0.36485827577214       -0.08007596673784        0.89694897400643
S            0.29930853614439        0.52938137757594        2.94145534006810
S            2.28715610702038        0.52693025005555        3.45451423993882
C            2.76225341307556        2.24422471058918        3.25242224797104
C            2.09443812846255        3.25645354390514        3.92447119390285