      -----------------------------------------------------------      
     |                   =====================                   |     
     |                           x T B                           |     
     |                   =====================                   |     
     |                         S. Grimme                         |     
     |          Mulliken Center for Theoretical Chemistry        |     
     |                    University of Bonn                     |     
      -----------------------------------------------------------      

   * xtb version 6.7.1 (edcfbbe) compiled by 'conda@3ef47c1a292c' on 2024-11-25

   xtb is free software: you can redistribute it and/or modify it under
   the terms of the GNU Lesser General Public License as published by
   the Free Software Foundation, either version 3 of the License, or
   (at your option) any later version.
   
   xtb is distributed in the hope that it will be useful,
   but WITHOUT ANY WARRANTY; without even the implied warranty of
   MERCHANTABILITY or FITNESS FOR A PARTICULAR PURPOSE.  See the
   GNU Lesser General Public License for more details.
   
   Cite this work as:
   * C. Bannwarth, E. Caldeweyher, S. Ehlert, A. Hansen, P. Pracht,
     J. Seibert, S. Spicher, S. Grimme, WIREs Comput. Mol. Sci., 2020, 11,
     e01493. DOI: 10.1002/wcms.1493
   
   for GFN2-xTB:
   * C. Bannwarth, S. Ehlert and S. Grimme., J. Chem. Theory Comput., 2019,
     15, 1652-1671. DOI: 10.1021/acs.jctc.8b01176
   for GFN1-xTB:
   * S. Grimme, C. Bannwarth, P. Shushkov, J. Chem. Theory Comput., 2017,
     13, 1989-2009. DOI: 10.1021/acs.jctc.7b00118
   for GFN0-xTB:
   * P. Pracht, E. Caldeweyher, S. Ehlert, S. Grimme, ChemRxiv, 2019, preprint.
     DOI: 10.26434/chemrxiv.8326202.v1
   for GFN-FF:
   * S. Spicher and S. Grimme, Angew. Chem. Int. Ed., 2020, 59, 15665-15673.
     DOI: 10.1002/anie.202004239
   
   for ALPB and GBSA implicit solvation:
   * S. Ehlert, M. Stahn, S. Spicher, S. Grimme, J. Chem. Theory Comput.,
     2021, 17, 4250-4261. DOI: 10.1021/acs.jctc.1c00471
   
   for ddCOSMO and CPCM-X implicit solvation:
   * M. Stahn, S. Ehlert, S. Grimme, J. Phys. Chem. A,
     2023, XX, XXXX-XXXX. DOI: 10.1021/acs.jpca.3c04382
   
   for DFT-D4:
   * E. Caldeweyher, C. Bannwarth and S. Grimme, J. Chem. Phys., 2017,
     147, 034112. DOI: 10.1063/1.4993215
   * E. Caldeweyher, S. Ehlert, A. Hansen, H. Neugebauer, S. Spicher,
     C. Bannwarth and S. Grimme, J. Chem. Phys., 2019, 150, 154122.
     DOI: 10.1063/1.5090222
   * E. Caldeweyher, J.-M. Mewes, S. Ehlert and S. Grimme, Phys. Chem. Chem. Phys.
     2020, 22, 8499-8512. DOI: 10.1039/D0CP00502A
   
   for sTDA-xTB:
   * S. Grimme and C. Bannwarth, J. Chem. Phys., 2016, 145, 054103.
     DOI: 10.1063/1.4959605
   
   in the mass-spec context:
   * V. Asgeirsson, C. Bauer and S. Grimme, Chem. Sci., 2017, 8, 4879.
     DOI: 10.1039/c7sc00601b
   * J. Koopman and S. Grimme, ACS Omega 2019, 4, 12, 15120-15133.
     DOI: 10.1021/acsomega.9b02011
   
   for metadynamics refer to:
   * S. Grimme, J. Chem. Theory Comput., 2019, 155, 2847-2862
     DOI: 10.1021/acs.jctc.9b00143
   
   for SPH calculations refer to:
   * S. Spicher and S. Grimme, J. Chem. Theory Comput., 2021, 17, 1701-1714
     DOI: 10.1021/acs.jctc.0c01306
   
   for ONIOM refer to:
   * C. Plett, A. Katbashev, S. Ehlert, S. Grimme, M. Bursch,
     Phys. Chem. Chem. Phys., 2023, 25, 17860-17868. DOI: 10.1039/D3CP02178E
   
   for DIPRO refer to:
   * J. Kohn, N. Gildemeister, S. Grimme, D. Fazzi, A. Hansen,
     J. Chem. Phys., 2023, just accepted.
   
   for PTB refer to:
   * S. Grimme, M. Mueller, A. Hansen, J. Chem. Phys., 2023, 158, 124111.
     DOI: 10.1063/5.0137838
   
   with help from (in alphabetical order)
   P. Atkinson, C. Bannwarth, F. Bohle, G. Brandenburg, E. Caldeweyher
   M. Checinski, S. Dohm, S. Ehlert, S. Ehrlich, I. Gerasimov, C. Hölzer
   A. Katbashev, J. Kohn, J. Koopman, C. Lavigne, S. Lehtola, F. März, M. Müller,
   F. Musil, H. Neugebauer, J. Pisarek, C. Plett, P. Pracht, F. Pultar,
   J. Seibert, P. Shushkov, S. Spicher, M. Stahn, M. Steiner, T. Strunk,
   J. Stückrath, T. Rose, and J. Unsleber
   
 * started run on 2024/12/16 at 20:50:30.514     
   ID    Z sym.   atoms
    1    6 C      1-10, 15-21, 23-43, 45-50
    2   16 S      11, 12
    3   15 P      13
    4    7 N      14, 22, 44
    5    1 H      51-107

           -------------------------------------------------
          |                Calculation Setup                |
           -------------------------------------------------

          program call               : xtb --gfn2 --opt extreme -P 8 --charge 1 molecule.xyz
          hostname                   : node20
          coordinate file            : molecule.xyz
          omp threads                :                     8


           -------------------------------------------------
          |                 G F N 2 - x T B                 |
           -------------------------------------------------

        Reference                      10.1021/acs.jctc.8b01176
      * Hamiltonian:
        H0-scaling (s, p, d)           1.850000    2.230000    2.230000
        zeta-weighting                 0.500000
      * Dispersion:
        s8                             2.700000
        a1                             0.520000
        a2                             5.000000
        s9                             5.000000
      * Repulsion:
        kExp                           1.500000    1.000000
        rExp                           1.000000
      * Coulomb:
        alpha                          2.000000
        third order                    shell-resolved
        anisotropic                    true
        a3                             3.000000
        a5                             4.000000
        cn-shift                       1.200000
        cn-exp                         4.000000
        max-rad                        5.000000


          ...................................................
          :                      SETUP                      :
          :.................................................:
          :  # basis functions                 275          :
          :  # atomic orbitals                 272          :
          :  # shells                          160          :
          :  # electrons                       264          :
          :  max. iterations                   250          :
          :  Hamiltonian                  GFN2-xTB          :
          :  restarted?                      false          :
          :  GBSA solvation                  false          :
          :  PC potential                    false          :
          :  electronic temp.          300.0000000     K    :
          :  accuracy                    1.0000000          :
          :  -> integral cutoff          0.2500000E+02      :
          :  -> integral neglect         0.1000000E-07      :
          :  -> SCF convergence          0.1000000E-05 Eh   :
          :  -> wf. convergence          0.1000000E-03 e    :
          :  Broyden damping             0.4000000          :
          :  net charge                          1          :
          :  unpaired electrons                  0          :
          ...................................................

 iter      E             dE          RMSdq      gap      omega  full diag
   1   -142.7132236 -0.142713E+03  0.383E+00    1.76       0.0  T
   2   -142.9077204 -0.194497E+00  0.232E+00    2.04       1.0  T
   3   -142.8898617  0.178587E-01  0.116E+00    2.00       1.0  T
   4   -142.9127942 -0.229326E-01  0.571E-01    1.77       1.0  T
   5   -142.9378358 -0.250416E-01  0.253E-01    1.89       1.0  T
   6   -142.9412949 -0.345905E-02  0.127E-01    1.85       1.0  T
   7   -142.9427021 -0.140721E-02  0.486E-02    1.86       1.0  T
   8   -142.9427759 -0.737878E-04  0.238E-02    1.87       1.0  T
   9   -142.9427845 -0.860687E-05  0.112E-02    1.86       1.0  T
  10   -142.9427857 -0.122057E-05  0.668E-03    1.86       1.4  T
  11   -142.9427867 -0.983640E-06  0.391E-03    1.86       2.5  T
  12   -142.9427870 -0.347070E-06  0.220E-03    1.86       4.4  T
  13   -142.9427871 -0.267875E-07  0.115E-03    1.86       8.4  T
  14   -142.9427871 -0.567773E-07  0.520E-04    1.86      18.6  T
  15   -142.9427871 -0.295822E-08  0.262E-04    1.86      36.9  T

   *** convergence criteria satisfied after 15 iterations ***

         #    Occupation            Energy/Eh            Energy/eV
      -------------------------------------------------------------
         1        2.0000           -0.8501017             -23.1324
       ...           ...                  ...                  ...
       126        2.0000           -0.4900400             -13.3347
       127        2.0000           -0.4818913             -13.1129
       128        2.0000           -0.4801534             -13.0656
       129        2.0000           -0.4781255             -13.0105
       130        2.0000           -0.4740299             -12.8990
       131        2.0000           -0.4629232             -12.5968
       132        2.0000           -0.4488049             -12.2126 (HOMO)
       133                         -0.3803602             -10.3501 (LUMO)
       134                         -0.3663321              -9.9684
       135                         -0.3509084              -9.5487
       136                         -0.3442868              -9.3685
       137                         -0.3187358              -8.6732
       ...                                ...                  ...
       272                          1.1284330              30.7062
      -------------------------------------------------------------
                  HL-Gap            0.0684447 Eh            1.8625 eV
             Fermi-level           -0.4145826 Eh          -11.2814 eV

 SCC (total)                   0 d,  0 h,  0 min,  2.309 sec
 SCC setup                      ...        0 min,  0.000 sec (  0.022%)
 Dispersion                     ...        0 min,  0.003 sec (  0.125%)
 classical contributions        ...        0 min,  0.000 sec (  0.008%)
 integral evaluation            ...        0 min,  0.016 sec (  0.707%)
 iterations                     ...        0 min,  2.142 sec ( 92.755%)
 molecular gradient             ...        0 min,  0.132 sec (  5.730%)
 printout                       ...        0 min,  0.015 sec (  0.651%)

         :::::::::::::::::::::::::::::::::::::::::::::::::::::
         ::                     SUMMARY                     ::
         :::::::::::::::::::::::::::::::::::::::::::::::::::::
         :: total energy            -140.825149737206 Eh    ::
         :: gradient norm              0.141044614808 Eh/a0 ::
         :: HOMO-LUMO gap              1.862474171055 eV    ::
         ::.................................................::
         :: SCC energy              -142.933428234121 Eh    ::
         :: -> isotropic ES            0.079875890781 Eh    ::
         :: -> anisotropic ES          0.014044805203 Eh    ::
         :: -> anisotropic XC          0.085665862881 Eh    ::
         :: -> dispersion             -0.159817460712 Eh    ::
         :: repulsion energy           2.108278496915 Eh    ::
         :: add. restraining           0.000000000000 Eh    ::
         :: total charge               1.000000000000 e     ::
         :::::::::::::::::::::::::::::::::::::::::::::::::::::

      ----------------------------------------------------------- 
     |                   =====================                   |
     |                        A N C O P T                        |
     |                   =====================                   |
     |               Approximate Normal Coordinate               |
     |                Rational Function Optimizer                |
      ----------------------------------------------------------- 
      ----------------------------------------------------------- 
     |                   =====================                   |
     |                        A N C O P T                        |
     |                   =====================                   |
     |               Approximate Normal Coordinate               |
     |                Rational Function Optimizer                |
      ----------------------------------------------------------- 

          ...................................................
          :                      SETUP                      :
          :.................................................:
          :   optimization level           extreme          :
          :   max. optcycles                  2140          :
          :   ANC micro-cycles                  20          :
          :   degrees of freedom               315          :
          :.................................................:
          :   RF solver                   davidson          :
          :   write xtbopt.log                true          :
          :   linear?                        false          :
          :   energy convergence         0.5000000E-07 Eh   :
          :   grad. convergence          0.5000000E-04 Eh/α :
          :   maxmium RF displ.          1.0000000          :
          :   Hlow (freq-cutoff)         0.1000000E-01      :
          :   Hmax (freq-cutoff)         5.0000000          :
          :   S6 in model hess.         20.0000000          :
          ...................................................

generating ANC from exact Hessian ...
Using Lindh-Hessian (1995)
 Shifting diagonal of input Hessian by    9.9515963708850970E-003
 Lowest  eigenvalues of input Hessian
    0.000000    0.000000    0.000000    0.000000    0.000000    0.000000
    0.010000    0.010005    0.010045    0.010060    0.010158    0.010279
    0.010380    0.010417    0.010590    0.010688    0.010762    0.010912
 Highest eigenvalues
    1.909837    1.922984    1.981164    2.016968    2.056762    2.071622


........................................................................
.............................. CYCLE    1 ..............................
........................................................................

 iter      E             dE          RMSdq      gap      omega  full diag
   1   -142.9427871 -0.142943E+03  0.120E-04    1.86       0.0  T
   2   -142.9427871 -0.120139E-09  0.767E-05    1.86     126.0  T
   3   -142.9427871 -0.109708E-09  0.558E-05    1.86     173.2  T
     SCC iter.                  ...        0 min,  0.312 sec
     gradient                   ...        0 min,  0.128 sec
 * total energy  :  -140.8251497 Eh     change       -0.3404722E-08 Eh
   gradient norm :     0.1410443 Eh/α   predicted     0.0000000E+00 (-100.00%)
   displ. norm   :     0.4534597 α      lambda       -0.3600925E-01
   maximum displ.:     0.1055214 α      in ANC's #64, #74, #77, ...

........................................................................
.............................. CYCLE    2 ..............................
........................................................................

 iter      E             dE          RMSdq      gap      omega  full diag
   1   -143.0379667 -0.143038E+03  0.245E-01    1.95       0.0  T
   2   -143.0381855 -0.218726E-03  0.134E-01    2.01       1.0  T
   3   -143.0381066  0.789179E-04  0.442E-02    2.05       1.0  T
   4   -143.0382032 -0.966276E-04  0.234E-02    2.05       1.0  T
   5   -143.0382317 -0.284908E-04  0.120E-02    2.05       1.0  T
   6   -143.0382383 -0.662673E-05  0.614E-03    2.05       1.6  T
   7   -143.0382392 -0.892184E-06  0.430E-03    2.05       2.3  T
   8   -143.0382397 -0.556320E-06  0.253E-03    2.05       3.8  T
   9   -143.0382398 -0.971836E-07  0.108E-03    2.05       8.9  T
  10   -143.0382399 -0.211994E-07  0.472E-04    2.05      20.5  T
  11   -143.0382399 -0.558396E-08  0.200E-04    2.05      48.3  T
     SCC iter.                  ...        0 min,  1.602 sec
     gradient                   ...        0 min,  0.132 sec
 * total energy  :  -140.8504812 Eh     change       -0.2533146E-01 Eh
   gradient norm :     0.0590793 Eh/α   predicted    -0.2173267E-01 ( -14.21%)
   displ. norm   :     0.4711277 α      lambda       -0.1284419E-01
   maximum displ.:     0.1362999 α      in ANC's #64, #23, #31, ...

........................................................................
.............................. CYCLE    3 ..............................
........................................................................

 iter      E             dE          RMSdq      gap      omega  full diag
   1   -143.0986516 -0.143099E+03  0.163E-01    2.16       0.0  T
   2   -143.0987290 -0.773437E-04  0.872E-02    2.20       1.0  T
   3   -143.0987039  0.250177E-04  0.288E-02    2.21       1.0  T
   4   -143.0987367 -0.328084E-04  0.138E-02    2.21       1.0  T
   5   -143.0987446 -0.782466E-05  0.758E-03    2.21       1.3  T
   6   -143.0987481 -0.358307E-05  0.334E-03    2.21       2.9  T
   7   -143.0987483 -0.160815E-06  0.231E-03    2.21       4.2  T
   8   -143.0987484 -0.121611E-06  0.131E-03    2.21       7.4  T
   9   -143.0987485 -0.284274E-07  0.674E-04    2.21      14.4  T
  10   -143.0987485 -0.911817E-08  0.278E-04    2.21      34.8  T
     SCC iter.                  ...        0 min,  1.410 sec
     gradient                   ...        0 min,  0.128 sec
 * total energy  :  -140.8586555 Eh     change       -0.8174254E-02 Eh
   gradient norm :     0.0144922 Eh/α   predicted    -0.7847555E-02 (  -4.00%)
   displ. norm   :     0.4426158 α      lambda       -0.3502412E-02
   maximum displ.:     0.1818954 α      in ANC's #23, #31, #25, ...

........................................................................
.............................. CYCLE    4 ..............................
........................................................................

 iter      E             dE          RMSdq      gap      omega  full diag
   1   -143.1120436 -0.143112E+03  0.835E-02    2.29       0.0  T
   2   -143.1120617 -0.180225E-04  0.448E-02    2.29       1.0  T
   3   -143.1120556  0.609373E-05  0.148E-02    2.29       1.0  T
   4   -143.1120622 -0.665015E-05  0.733E-03    2.30       1.3  T
   5   -143.1120649 -0.269552E-05  0.319E-03    2.30       3.0  T
   6   -143.1120656 -0.721754E-06  0.130E-03    2.30       7.5  T
   7   -143.1120657 -0.103143E-06  0.508E-04    2.30      19.0  T
   8   -143.1120657 -0.117456E-07  0.247E-04    2.30      39.1  T
     SCC iter.                  ...        0 min,  1.223 sec
     gradient                   ...        0 min,  0.139 sec
 * total energy  :  -140.8612552 Eh     change       -0.2599792E-02 Eh
   gradient norm :     0.0118718 Eh/α   predicted    -0.2094334E-02 ( -19.44%)
   displ. norm   :     0.5418958 α      lambda       -0.2552802E-02
   maximum displ.:     0.2695014 α      in ANC's #23, #31, #8, ...

........................................................................
.............................. CYCLE    5 ..............................
........................................................................

 iter      E             dE          RMSdq      gap      omega  full diag
   1   -143.1196788 -0.143120E+03  0.718E-02    2.31       0.0  T
   2   -143.1196919 -0.130269E-04  0.420E-02    2.31       1.0  T
   3   -143.1196848  0.711274E-05  0.147E-02    2.30       1.0  T
   4   -143.1196948 -0.100184E-04  0.457E-03    2.30       2.1  T
   5   -143.1196951 -0.332017E-06  0.256E-03    2.30       3.8  T
   6   -143.1196954 -0.312978E-06  0.101E-03    2.30       9.5  T
   7   -143.1196954 -0.155216E-07  0.571E-04    2.30      16.9  T
   8   -143.1196954 -0.138370E-07  0.250E-04    2.30      38.7  T
     SCC iter.                  ...        0 min,  1.150 sec
     gradient                   ...        0 min,  0.128 sec
 * total energy  :  -140.8630716 Eh     change       -0.1816340E-02 Eh
   gradient norm :     0.0102993 Eh/α   predicted    -0.1651227E-02 (  -9.09%)
   displ. norm   :     0.5453737 α      lambda       -0.1744246E-02
   maximum displ.:     0.2417500 α      in ANC's #23, #8, #9, ...

........................................................................
.............................. CYCLE    6 ..............................
........................................................................

 iter      E             dE          RMSdq      gap      omega  full diag
   1   -143.1206632 -0.143121E+03  0.959E-02    2.34       0.0  T
   2   -143.1206910 -0.277510E-04  0.453E-02    2.34       1.0  T
   3   -143.1206916 -0.578807E-06  0.124E-02    2.34       1.0  T
   4   -143.1206918 -0.260621E-06  0.688E-03    2.34       1.4  T
   5   -143.1206935 -0.170117E-05  0.297E-03    2.34       3.3  T
   6   -143.1206940 -0.466306E-06  0.114E-03    2.34       8.5  T
   7   -143.1206940 -0.468632E-07  0.681E-04    2.34      14.2  T
   8   -143.1206940 -0.328305E-08  0.447E-04    2.34      21.6  T
     SCC iter.                  ...        0 min,  0.961 sec
     gradient                   ...        0 min,  0.139 sec
 * total energy  :  -140.8642446 Eh     change       -0.1173045E-02 Eh
   gradient norm :     0.0077531 Eh/α   predicted    -0.1131527E-02 (  -3.54%)
   displ. norm   :     0.4920524 α      lambda       -0.1161096E-02
   maximum displ.:     0.2101092 α      in ANC's #8, #23, #7, ...

........................................................................
.............................. CYCLE    7 ..............................
........................................................................

 iter      E             dE          RMSdq      gap      omega  full diag
   1   -143.1228466 -0.143123E+03  0.584E-02    2.34       0.0  T
   2   -143.1228515 -0.488286E-05  0.330E-02    2.34       1.0  T
   3   -143.1228486  0.285971E-05  0.782E-03    2.34       1.2  T
   4   -143.1228518 -0.315161E-05  0.301E-03    2.33       3.2  T
   5   -143.1228524 -0.565654E-06  0.175E-03    2.34       5.5  T
   6   -143.1228526 -0.204541E-06  0.789E-04    2.34      12.3  T
   7   -143.1228526 -0.253657E-07  0.326E-04    2.34      29.6  T
     SCC iter.                  ...        0 min,  1.055 sec
     gradient                   ...        0 min,  0.133 sec
 * total energy  :  -140.8651062 Eh     change       -0.8615386E-03 Eh
   gradient norm :     0.0073263 Eh/α   predicted    -0.7211085E-03 ( -16.30%)
   displ. norm   :     0.4701445 α      lambda       -0.8388407E-03
   maximum displ.:     0.2232293 α      in ANC's #8, #7, #9, ...

........................................................................
.............................. CYCLE    8 ..............................
........................................................................

 iter      E             dE          RMSdq      gap      omega  full diag
   1   -143.1242164 -0.143124E+03  0.540E-02    2.34       0.0  T
   2   -143.1242197 -0.324977E-05  0.296E-02    2.34       1.0  T
   3   -143.1242178  0.191825E-05  0.767E-03    2.34       1.3  T
   4   -143.1242201 -0.234597E-05  0.328E-03    2.34       3.0  T
   5   -143.1242205 -0.436284E-06  0.911E-04    2.34      10.6  T
   6   -143.1242206 -0.385480E-07  0.404E-04    2.34      23.9  T
     SCC iter.                  ...        0 min,  0.847 sec
     gradient                   ...        0 min,  0.127 sec
 * total energy  :  -140.8657553 Eh     change       -0.6490911E-03 Eh
   gradient norm :     0.0059573 Eh/α   predicted    -0.5121291E-03 ( -21.10%)
   displ. norm   :     0.4586536 α      lambda       -0.6296184E-03
   maximum displ.:     0.2190068 α      in ANC's #8, #7, #9, ...

........................................................................
.............................. CYCLE    9 ..............................
........................................................................

 iter      E             dE          RMSdq      gap      omega  full diag
   1   -143.1249427 -0.143125E+03  0.503E-02    2.35       0.0  T
   2   -143.1249462 -0.343845E-05  0.269E-02    2.35       1.0  T
   3   -143.1249447  0.150580E-05  0.755E-03    2.35       1.3  T
   4   -143.1249465 -0.180805E-05  0.361E-03    2.35       2.7  T
   5   -143.1249469 -0.472397E-06  0.112E-03    2.35       8.6  T
   6   -143.1249470 -0.958013E-07  0.535E-04    2.35      18.1  T
   7   -143.1249471 -0.211857E-07  0.275E-04    2.35      35.1  T
     SCC iter.                  ...        0 min,  1.224 sec
     gradient                   ...        0 min,  0.128 sec
 * total energy  :  -140.8662356 Eh     change       -0.4802971E-03 Eh
   gradient norm :     0.0042027 Eh/α   predicted    -0.3810337E-03 ( -20.67%)
   displ. norm   :     0.4238982 α      lambda       -0.4365966E-03
   maximum displ.:     0.2013751 α      in ANC's #7, #8, #9, ...

........................................................................
.............................. CYCLE   10 ..............................
........................................................................

 iter      E             dE          RMSdq      gap      omega  full diag
   1   -143.1259094 -0.143126E+03  0.416E-02    2.35       0.0  T
   2   -143.1259116 -0.216580E-05  0.227E-02    2.35       1.0  T
   3   -143.1259106  0.930471E-06  0.561E-03    2.35       1.7  T
   4   -143.1259114 -0.777166E-06  0.315E-03    2.35       3.1  T
   5   -143.1259120 -0.588090E-06  0.124E-03    2.35       7.8  T
   6   -143.1259121 -0.886622E-07  0.665E-04    2.35      14.5  T
   7   -143.1259121 -0.224623E-07  0.370E-04    2.35      26.1  T
     SCC iter.                  ...        0 min,  1.101 sec
     gradient                   ...        0 min,  0.128 sec
 * total energy  :  -140.8665628 Eh     change       -0.3272850E-03 Eh
   gradient norm :     0.0036246 Eh/α   predicted    -0.2575255E-03 ( -21.31%)
   displ. norm   :     0.3622684 α      lambda       -0.2901958E-03
   maximum displ.:     0.1867113 α      in ANC's #7, #8, #15, ...

........................................................................
.............................. CYCLE   11 ..............................
........................................................................

 iter      E             dE          RMSdq      gap      omega  full diag
   1   -143.1264987 -0.143126E+03  0.413E-02    2.35       0.0  T
   2   -143.1265007 -0.203078E-05  0.218E-02    2.35       1.0  T
   3   -143.1264997  0.982546E-06  0.569E-03    2.35       1.7  T
   4   -143.1265005 -0.755375E-06  0.324E-03    2.35       3.0  T
   5   -143.1265011 -0.640918E-06  0.118E-03    2.35       8.2  T
   6   -143.1265012 -0.130396E-06  0.430E-04    2.35      22.5  T
   7   -143.1265012 -0.109586E-07  0.172E-04    2.35      56.2  T
     SCC iter.                  ...        0 min,  0.997 sec
     gradient                   ...        0 min,  0.131 sec
 * total energy  :  -140.8667747 Eh     change       -0.2118342E-03 Eh
   gradient norm :     0.0037484 Eh/α   predicted    -0.1641407E-03 ( -22.51%)
   displ. norm   :     0.2853265 α      lambda       -0.1935938E-03
   maximum displ.:     0.1594677 α      in ANC's #7, #15, #8, ...

........................................................................
.............................. CYCLE   12 ..............................
........................................................................

 iter      E             dE          RMSdq      gap      omega  full diag
   1   -143.1276022 -0.143128E+03  0.353E-02    2.36       0.0  T
   2   -143.1276031 -0.842195E-06  0.203E-02    2.36       1.0  T
   3   -143.1276028  0.279225E-06  0.298E-03    2.36       3.2  T
   4   -143.1276032 -0.373638E-06  0.152E-03    2.36       6.4  T
   5   -143.1276032 -0.858328E-07  0.824E-04    2.36      11.7  T
   6   -143.1276033 -0.263505E-07  0.396E-04    2.36      24.4  T
     SCC iter.                  ...        0 min,  0.750 sec
     gradient                   ...        0 min,  0.132 sec
 * total energy  :  -140.8669152 Eh     change       -0.1405599E-03 Eh
   gradient norm :     0.0035161 Eh/α   predicted    -0.1046775E-03 ( -25.53%)
   displ. norm   :     0.2505969 α      lambda       -0.1526049E-03
   maximum displ.:     0.1425660 α      in ANC's #7, #15, #4, ...

........................................................................
.............................. CYCLE   13 ..............................
........................................................................

 iter      E             dE          RMSdq      gap      omega  full diag
   1   -143.1275142 -0.143128E+03  0.378E-02    2.35       0.0  T
   2   -143.1275152 -0.970185E-06  0.216E-02    2.36       1.0  T
   3   -143.1275143  0.910583E-06  0.436E-03    2.36       2.2  T
   4   -143.1275153 -0.101253E-05  0.183E-03    2.36       5.3  T
   5   -143.1275155 -0.140705E-06  0.885E-04    2.36      10.9  T
   6   -143.1275155 -0.612561E-07  0.377E-04    2.36      25.6  T
     SCC iter.                  ...        0 min,  0.971 sec
     gradient                   ...        0 min,  0.130 sec
 * total energy  :  -140.8670287 Eh     change       -0.1134214E-03 Eh
   gradient norm :     0.0026175 Eh/α   predicted    -0.8109520E-04 ( -28.50%)
   displ. norm   :     0.2462550 α      lambda       -0.1355248E-03
   maximum displ.:     0.1374901 α      in ANC's #7, #4, #15, ...

........................................................................
.............................. CYCLE   14 ..............................
........................................................................

 iter      E             dE          RMSdq      gap      omega  full diag
   1   -143.1275553 -0.143128E+03  0.362E-02    2.36       0.0  T
   2   -143.1275558 -0.562693E-06  0.209E-02    2.36       1.0  T
   3   -143.1275556  0.228249E-06  0.283E-03    2.36       3.4  T
   4   -143.1275559 -0.330216E-06  0.110E-03    2.36       8.8  T
   5   -143.1275560 -0.449025E-07  0.460E-04    2.36      21.0  T
   6   -143.1275560 -0.162388E-07  0.183E-04    2.36      52.8  T
     SCC iter.                  ...        0 min,  0.761 sec
     gradient                   ...        0 min,  0.130 sec
 * total energy  :  -140.8671311 Eh     change       -0.1024560E-03 Eh
   gradient norm :     0.0023811 Eh/α   predicted    -0.7187191E-04 ( -29.85%)
   displ. norm   :     0.2397688 α      lambda       -0.1136633E-03
   maximum displ.:     0.1308907 α      in ANC's #7, #4, #14, ...

........................................................................
.............................. CYCLE   15 ..............................
........................................................................

 iter      E             dE          RMSdq      gap      omega  full diag
   1   -143.1272091 -0.143127E+03  0.314E-02    2.37       0.0  T
   2   -143.1272096 -0.554308E-06  0.179E-02    2.37       1.0  T
   3   -143.1272094  0.203407E-06  0.277E-03    2.37       3.5  T
   4   -143.1272096 -0.164490E-06  0.146E-03    2.37       6.6  T
   5   -143.1272097 -0.145749E-06  0.606E-04    2.37      16.0  T
   6   -143.1272098 -0.279892E-07  0.299E-04    2.37      32.3  T
     SCC iter.                  ...        0 min,  0.887 sec
     gradient                   ...        0 min,  0.132 sec
 * total energy  :  -140.8672166 Eh     change       -0.8551157E-04 Eh
   gradient norm :     0.0027893 Eh/α   predicted    -0.6009936E-04 ( -29.72%)
   displ. norm   :     0.2150225 α      lambda       -0.8527171E-04
   maximum displ.:     0.1190216 α      in ANC's #7, #4, #14, ...

........................................................................
.............................. CYCLE   16 ..............................
........................................................................

 iter      E             dE          RMSdq      gap      omega  full diag
   1   -143.1272849 -0.143127E+03  0.244E-02    2.38       0.0  T
   2   -143.1272853 -0.401259E-06  0.136E-02    2.38       1.0  T
   3   -143.1272851  0.246262E-06  0.279E-03    2.38       3.5  T
   4   -143.1272852 -0.178233E-06  0.147E-03    2.38       6.6  T
   5   -143.1272854 -0.145705E-06  0.560E-04    2.38      17.3  T
   6   -143.1272854 -0.291416E-07  0.197E-04    2.38      49.1  T
     SCC iter.                  ...        0 min,  0.854 sec
     gradient                   ...        0 min,  0.128 sec
 * total energy  :  -140.8672805 Eh     change       -0.6385248E-04 Eh
   gradient norm :     0.0025913 Eh/α   predicted    -0.4460972E-04 ( -30.14%)
   displ. norm   :     0.1878440 α      lambda       -0.6318348E-04
   maximum displ.:     0.1064452 α      in ANC's #7, #4, #2, ...

........................................................................
.............................. CYCLE   17 ..............................
........................................................................

 iter      E             dE          RMSdq      gap      omega  full diag
   1   -143.1274504 -0.143127E+03  0.212E-02    2.38       0.0  T
   2   -143.1274508 -0.405411E-06  0.116E-02    2.38       1.0  T
   3   -143.1274507  0.111258E-06  0.260E-03    2.38       3.7  T
   4   -143.1274508 -0.788874E-07  0.131E-03    2.38       7.4  T
   5   -143.1274509 -0.926386E-07  0.521E-04    2.38      18.5  T
   6   -143.1274509 -0.257899E-07  0.175E-04    2.38      55.4  T
     SCC iter.                  ...        0 min,  0.716 sec
     gradient                   ...        0 min,  0.128 sec
 * total energy  :  -140.8673286 Eh     change       -0.4814593E-04 Eh
   gradient norm :     0.0018848 Eh/α   predicted    -0.3270910E-04 ( -32.06%)
   displ. norm   :     0.2741051 α      lambda       -0.5444796E-04
   maximum displ.:     0.1570848 α      in ANC's #7, #4, #11, ...

........................................................................
.............................. CYCLE   18 ..............................
........................................................................

 iter      E             dE          RMSdq      gap      omega  full diag
   1   -143.1277090 -0.143128E+03  0.299E-02    2.39       0.0  T
   2   -143.1277097 -0.687277E-06  0.168E-02    2.39       1.0  T
   3   -143.1277095  0.234714E-06  0.333E-03    2.39       2.9  T
   4   -143.1277097 -0.290797E-06  0.143E-03    2.39       6.8  T
   5   -143.1277098 -0.722669E-07  0.630E-04    2.39      15.4  T
   6   -143.1277099 -0.339153E-07  0.248E-04    2.39      38.9  T
     SCC iter.                  ...        0 min,  0.793 sec
     gradient                   ...        0 min,  0.130 sec
 * total energy  :  -140.8673822 Eh     change       -0.5352868E-04 Eh
   gradient norm :     0.0018535 Eh/α   predicted    -0.2813565E-04 ( -47.44%)
   displ. norm   :     0.1733473 α      lambda       -0.3312321E-04
   maximum displ.:     0.0980842 α      in ANC's #7, #4, #11, ...

........................................................................
.............................. CYCLE   19 ..............................
........................................................................

 iter      E             dE          RMSdq      gap      omega  full diag
   1   -143.1277295 -0.143128E+03  0.180E-02    2.39       0.0  T
   2   -143.1277297 -0.252880E-06  0.101E-02    2.39       1.0  T
   3   -143.1277297  0.517666E-07  0.197E-03    2.39       4.9  T
   4   -143.1277297 -0.707282E-07  0.922E-04    2.39      10.5  T
   5   -143.1277298 -0.361190E-07  0.273E-04    2.39      35.4  T
     SCC iter.                  ...        0 min,  0.675 sec
     gradient                   ...        0 min,  0.134 sec
 * total energy  :  -140.8674216 Eh     change       -0.3946248E-04 Eh
   gradient norm :     0.0018443 Eh/α   predicted    -0.1678767E-04 ( -57.46%)
   displ. norm   :     0.2739429 α      lambda       -0.4781888E-04
   maximum displ.:     0.1463608 α      in ANC's #7, #4, #11, ...

........................................................................
.............................. CYCLE   20 ..............................
........................................................................

 iter      E             dE          RMSdq      gap      omega  full diag
   1   -143.1279573 -0.143128E+03  0.254E-02    2.39       0.0  T
   2   -143.1279576 -0.300506E-06  0.148E-02    2.39       1.0  T
   3   -143.1279571  0.508375E-06  0.269E-03    2.39       3.6  T
   4   -143.1279577 -0.606257E-06  0.745E-04    2.39      13.0  T
   5   -143.1279577 -0.201904E-07  0.406E-04    2.39      23.8  T
     SCC iter.                  ...        0 min,  0.766 sec
     gradient                   ...        0 min,  0.130 sec
 * total energy  :  -140.8674671 Eh     change       -0.4549523E-04 Eh
   gradient norm :     0.0018168 Eh/α   predicted    -0.2470934E-04 ( -45.69%)
   displ. norm   :     0.2769824 α      lambda        0.1066895E-04
   maximum displ.:     0.1479980 α      in ANC's #7, #4, #11, ...
 * RMSD in coord.:     0.4625110 α      energy gain  -0.4231738E-01 Eh

generating ANC from exact Hessian ...
Using Lindh-Hessian (1995)
 Shifting diagonal of input Hessian by    1.0095167954001576E-002
 Lowest  eigenvalues of input Hessian
    0.010000    0.000000    0.000000    0.000000    0.000000    0.000000
    0.000000    0.010151    0.010154    0.010177    0.010264    0.010344
    0.010461    0.010663    0.010709    0.010950    0.010997    0.011060
 Highest eigenvalues
    1.980114    1.980963    2.025534    2.072197    2.113479    2.125882


........................................................................
.............................. CYCLE   21 ..............................
........................................................................

 iter      E             dE          RMSdq      gap      omega  full diag
   1   -143.1276963 -0.143128E+03  0.257E-02    2.39       0.0  T
   2   -143.1276966 -0.316814E-06  0.150E-02    2.39       1.0  T
   3   -143.1276961  0.517399E-06  0.276E-03    2.39       3.5  T
   4   -143.1276967 -0.629971E-06  0.714E-04    2.39      13.5  T
   5   -143.1276968 -0.145595E-07  0.386E-04    2.39      25.0  T
     SCC iter.                  ...        0 min,  0.600 sec
     gradient                   ...        0 min,  0.127 sec
 * total energy  :  -140.8674604 Eh     change        0.6679070E-05 Eh
   gradient norm :     0.0029624 Eh/α   predicted     0.0000000E+00 (-100.00%)
   displ. norm   :     0.0431236 α      lambda       -0.5446119E-04
   maximum displ.:     0.0158992 α      in ANC's #56, #66, #64, ...

........................................................................
.............................. CYCLE   22 ..............................
........................................................................

 iter      E             dE          RMSdq      gap      omega  full diag
   1   -143.1277821 -0.143128E+03  0.196E-02    2.39       0.0  T
   2   -143.1277830 -0.822823E-06  0.829E-03    2.39       1.2  T
   3   -143.1277830 -0.315162E-07  0.215E-03    2.39       4.5  T
   4   -143.1277830 -0.220024E-08  0.133E-03    2.39       7.3  T
   5   -143.1277831 -0.941259E-07  0.417E-04    2.39      23.2  T
   6   -143.1277831 -0.852171E-08  0.193E-04    2.39      50.1  T
     SCC iter.                  ...        0 min,  0.754 sec
     gradient                   ...        0 min,  0.129 sec
 * total energy  :  -140.8674884 Eh     change       -0.2794612E-04 Eh
   gradient norm :     0.0015864 Eh/α   predicted    -0.2728713E-04 (  -2.36%)
   displ. norm   :     0.0559813 α      lambda       -0.2028136E-04
   maximum displ.:     0.0233096 α      in ANC's #25, #26, #16, ...

........................................................................
.............................. CYCLE   23 ..............................
........................................................................

 iter      E             dE          RMSdq      gap      omega  full diag
   1   -143.1279164 -0.143128E+03  0.146E-02    2.40       0.0  T
   2   -143.1279167 -0.315322E-06  0.741E-03    2.40       1.3  T
   3   -143.1279167  0.825042E-07  0.207E-03    2.40       4.7  T
   4   -143.1279167 -0.522458E-07  0.118E-03    2.40       8.2  T
   5   -143.1279168 -0.852123E-07  0.367E-04    2.40      26.3  T
   6   -143.1279168 -0.677761E-08  0.202E-04    2.40      47.9  T
     SCC iter.                  ...        0 min,  0.627 sec
     gradient                   ...        0 min,  0.132 sec
 * total energy  :  -140.8675075 Eh     change       -0.1916147E-04 Eh
   gradient norm :     0.0008792 Eh/α   predicted    -0.1015499E-04 ( -47.00%)
   displ. norm   :     0.0690827 α      lambda       -0.1392660E-04
   maximum displ.:     0.0259840 α      in ANC's #16, #25, #7, ...

........................................................................
.............................. CYCLE   24 ..............................
........................................................................

 iter      E             dE          RMSdq      gap      omega  full diag
   1   -143.1280021 -0.143128E+03  0.143E-02    2.40       0.0  T
   2   -143.1280026 -0.520908E-06  0.782E-03    2.40       1.2  T
   3   -143.1280025  0.768348E-07  0.243E-03    2.40       4.0  T
   4   -143.1280026 -0.936677E-07  0.108E-03    2.40       9.0  T
   5   -143.1280027 -0.565534E-07  0.438E-04    2.40      22.1  T
   6   -143.1280027 -0.625477E-08  0.193E-04    2.40      50.1  T
     SCC iter.                  ...        0 min,  0.844 sec
     gradient                   ...        0 min,  0.131 sec
 * total energy  :  -140.8675126 Eh     change       -0.5044889E-05 Eh
   gradient norm :     0.0012466 Eh/α   predicted    -0.6978416E-05 (  38.33%)
   displ. norm   :     0.0426502 α      lambda       -0.1134765E-04
   maximum displ.:     0.0165102 α      in ANC's #16, #25, #3, ...

........................................................................
.............................. CYCLE   25 ..............................
........................................................................

 iter      E             dE          RMSdq      gap      omega  full diag
   1   -143.1279209 -0.143128E+03  0.113E-02    2.40       0.0  T
   2   -143.1279213 -0.471370E-06  0.569E-03    2.40       1.7  T
   3   -143.1279213  0.222211E-07  0.185E-03    2.40       5.2  T
   4   -143.1279213 -0.107045E-08  0.927E-04    2.40      10.4  T
   5   -143.1279214 -0.613030E-07  0.435E-04    2.40      22.2  T
     SCC iter.                  ...        0 min,  0.698 sec
     gradient                   ...        0 min,  0.130 sec
 * total energy  :  -140.8675204 Eh     change       -0.7772492E-05 Eh
   gradient norm :     0.0008634 Eh/α   predicted    -0.5678899E-05 ( -26.94%)
   displ. norm   :     0.0206157 α      lambda       -0.3733711E-05
   maximum displ.:     0.0069029 α      in ANC's #26, #7, #4, ...

........................................................................
.............................. CYCLE   26 ..............................
........................................................................

 iter      E             dE          RMSdq      gap      omega  full diag
   1   -143.1280408 -0.143128E+03  0.436E-03    2.40       0.0  T
   2   -143.1280409 -0.396970E-07  0.237E-03    2.40       4.1  T
   3   -143.1280408  0.312679E-07  0.856E-04    2.40      11.3  T
   4   -143.1280409 -0.360377E-07  0.338E-04    2.40      28.6  T
     SCC iter.                  ...        0 min,  0.494 sec
     gradient                   ...        0 min,  0.131 sec
 * total energy  :  -140.8675240 Eh     change       -0.3651546E-05 Eh
   gradient norm :     0.0004032 Eh/α   predicted    -0.1867578E-05 ( -48.86%)
   displ. norm   :     0.0458920 α      lambda       -0.3982776E-05
   maximum displ.:     0.0166998 α      in ANC's #7, #3, #16, ...

........................................................................
.............................. CYCLE   27 ..............................
........................................................................

 iter      E             dE          RMSdq      gap      omega  full diag
   1   -143.1281091 -0.143128E+03  0.727E-03    2.40       0.0  T
   2   -143.1281092 -0.719293E-07  0.388E-03    2.40       2.5  T
   3   -143.1281091  0.684506E-07  0.126E-03    2.40       7.7  T
   4   -143.1281092 -0.482091E-07  0.688E-04    2.40      14.0  T
   5   -143.1281092 -0.366832E-07  0.266E-04    2.40      36.4  T
     SCC iter.                  ...        0 min,  0.672 sec
     gradient                   ...        0 min,  0.128 sec
 * total energy  :  -140.8675277 Eh     change       -0.3659530E-05 Eh
   gradient norm :     0.0004677 Eh/α   predicted    -0.1993938E-05 ( -45.51%)
   displ. norm   :     0.0637335 α      lambda       -0.3313881E-05
   maximum displ.:     0.0230148 α      in ANC's #7, #3, #16, ...

........................................................................
.............................. CYCLE   28 ..............................
........................................................................

 iter      E             dE          RMSdq      gap      omega  full diag
   1   -143.1278821 -0.143128E+03  0.919E-03    2.40       0.0  T
   2   -143.1278822 -0.846896E-07  0.517E-03    2.40       1.9  T
   3   -143.1278821  0.819617E-07  0.137E-03    2.40       7.1  T
   4   -143.1278822 -0.893651E-07  0.578E-04    2.40      16.7  T
   5   -143.1278822 -0.132049E-07  0.253E-04    2.40      38.2  T
     SCC iter.                  ...        0 min,  0.700 sec
     gradient                   ...        0 min,  0.130 sec
 * total energy  :  -140.8675306 Eh     change       -0.2897128E-05 Eh
   gradient norm :     0.0005298 Eh/α   predicted    -0.1664742E-05 ( -42.54%)
   displ. norm   :     0.0478212 α      lambda       -0.2100907E-05
   maximum displ.:     0.0177679 α      in ANC's #7, #4, #3, ...

........................................................................
.............................. CYCLE   29 ..............................
........................................................................

 iter      E             dE          RMSdq      gap      omega  full diag
   1   -143.1278150 -0.143128E+03  0.614E-03    2.40       0.0  T
   2   -143.1278150 -0.187439E-07  0.355E-03    2.40       2.7  T
   3   -143.1278150  0.201541E-07  0.585E-04    2.40      16.5  T
   4   -143.1278150 -0.242435E-07  0.209E-04    2.40      46.3  T
     SCC iter.                  ...        0 min,  0.546 sec
     gradient                   ...        0 min,  0.137 sec
 * total energy  :  -140.8675329 Eh     change       -0.2373637E-05 Eh
   gradient norm :     0.0003155 Eh/α   predicted    -0.1054288E-05 ( -55.58%)
   displ. norm   :     0.0634638 α      lambda       -0.2664938E-05
   maximum displ.:     0.0276400 α      in ANC's #4, #3, #7, ...

........................................................................
.............................. CYCLE   30 ..............................
........................................................................

 iter      E             dE          RMSdq      gap      omega  full diag
   1   -143.1279448 -0.143128E+03  0.680E-03    2.40       0.0  T
   2   -143.1279448 -0.169871E-07  0.396E-03    2.40       2.4  T
   3   -143.1279448  0.166779E-07  0.570E-04    2.40      17.0  T
   4   -143.1279448 -0.208597E-07  0.223E-04    2.40      43.3  T
     SCC iter.                  ...        0 min,  0.473 sec
     gradient                   ...        0 min,  0.123 sec
 * total energy  :  -140.8675359 Eh     change       -0.2912331E-05 Eh
   gradient norm :     0.0002721 Eh/α   predicted    -0.1339806E-05 ( -54.00%)
   displ. norm   :     0.0618986 α      lambda       -0.2056096E-05
   maximum displ.:     0.0288868 α      in ANC's #4, #3, #7, ...

........................................................................
.............................. CYCLE   31 ..............................
........................................................................

 iter      E             dE          RMSdq      gap      omega  full diag
   1   -143.1279971 -0.143128E+03  0.550E-03    2.40       0.0  T
   2   -143.1279971 -0.113143E-07  0.322E-03    2.40       3.0  T
   3   -143.1279971  0.158981E-07  0.477E-04    2.40      20.3  T
   4   -143.1279971 -0.196884E-07  0.153E-04    2.40      63.0  T
     SCC iter.                  ...        0 min,  0.606 sec
     gradient                   ...        0 min,  0.128 sec
 * total energy  :  -140.8675381 Eh     change       -0.2292850E-05 Eh
   gradient norm :     0.0003508 Eh/α   predicted    -0.1031167E-05 ( -55.03%)
   displ. norm   :     0.0627655 α      lambda       -0.1797512E-05
   maximum displ.:     0.0306947 α      in ANC's #4, #3, #7, ...

........................................................................
.............................. CYCLE   32 ..............................
........................................................................

 iter      E             dE          RMSdq      gap      omega  full diag
   1   -143.1281030 -0.143128E+03  0.532E-03    2.40       0.0  T
   2   -143.1281030 -0.186494E-07  0.300E-03    2.40       3.2  T
   3   -143.1281030  0.200478E-07  0.684E-04    2.40      14.1  T
   4   -143.1281030 -0.213403E-07  0.300E-04    2.40      32.2  T
     SCC iter.                  ...        0 min,  0.418 sec
     gradient                   ...        0 min,  0.131 sec
 * total energy  :  -140.8675402 Eh     change       -0.2092720E-05 Eh
   gradient norm :     0.0002915 Eh/α   predicted    -0.9033830E-06 ( -56.83%)
   displ. norm   :     0.0736093 α      lambda       -0.2021747E-05
   maximum displ.:     0.0362057 α      in ANC's #4, #3, #1, ...

........................................................................
.............................. CYCLE   33 ..............................
........................................................................

 iter      E             dE          RMSdq      gap      omega  full diag
   1   -143.1281480 -0.143128E+03  0.581E-03    2.40       0.0  T
   2   -143.1281480 -0.167039E-07  0.337E-03    2.40       2.9  T
   3   -143.1281480  0.560629E-07  0.780E-04    2.40      12.4  T
   4   -143.1281480 -0.595486E-07  0.247E-04    2.40      39.2  T
     SCC iter.                  ...        0 min,  0.497 sec
     gradient                   ...        0 min,  0.132 sec
 * total energy  :  -140.8675426 Eh     change       -0.2362283E-05 Eh
   gradient norm :     0.0002335 Eh/α   predicted    -0.1015474E-05 ( -57.01%)
   displ. norm   :     0.0912810 α      lambda       -0.2368058E-05
   maximum displ.:     0.0455210 α      in ANC's #4, #3, #1, ...

........................................................................
.............................. CYCLE   34 ..............................
........................................................................

 iter      E             dE          RMSdq      gap      omega  full diag
   1   -143.1281068 -0.143128E+03  0.799E-03    2.40       0.0  T
   2   -143.1281069 -0.345138E-07  0.449E-03    2.40       2.2  T
   3   -143.1281068  0.560169E-07  0.969E-04    2.40      10.0  T
   4   -143.1281068 -0.379806E-07  0.556E-04    2.40      17.4  T
     SCC iter.                  ...        0 min,  0.509 sec
     gradient                   ...        0 min,  0.127 sec
 * total energy  :  -140.8675452 Eh     change       -0.2644271E-05 Eh
   gradient norm :     0.0002883 Eh/α   predicted    -0.1190842E-05 ( -54.97%)
   displ. norm   :     0.0932765 α      lambda       -0.2093891E-05
   maximum displ.:     0.0461234 α      in ANC's #4, #3, #1, ...

........................................................................
.............................. CYCLE   35 ..............................
........................................................................

 iter      E             dE          RMSdq      gap      omega  full diag
   1   -143.1280043 -0.143128E+03  0.843E-03    2.40       0.0  T
   2   -143.1280043 -0.268301E-07  0.482E-03    2.40       2.0  T
   3   -143.1280042  0.704881E-07  0.925E-04    2.40      10.4  T
   4   -143.1280043 -0.536426E-07  0.521E-04    2.40      18.6  T
     SCC iter.                  ...        0 min,  0.528 sec
     gradient                   ...        0 min,  0.127 sec
 * total energy  :  -140.8675475 Eh     change       -0.2298076E-05 Eh
   gradient norm :     0.0003294 Eh/α   predicted    -0.1052425E-05 ( -54.20%)
   displ. norm   :     0.0681228 α      lambda       -0.1403753E-05
   maximum displ.:     0.0334555 α      in ANC's #4, #3, #1, ...

........................................................................
.............................. CYCLE   36 ..............................
........................................................................

 iter      E             dE          RMSdq      gap      omega  full diag
   1   -143.1279411 -0.143128E+03  0.649E-03    2.40       0.0  T
   2   -143.1279411 -0.203342E-07  0.367E-03    2.40       2.6  T
   3   -143.1279411  0.236698E-07  0.670E-04    2.40      14.4  T
   4   -143.1279411 -0.113748E-07  0.415E-04    2.40      23.3  T
     SCC iter.                  ...        0 min,  0.548 sec
     gradient                   ...        0 min,  0.132 sec
 * total energy  :  -140.8675491 Eh     change       -0.1564746E-05 Eh
   gradient norm :     0.0002347 Eh/α   predicted    -0.7054606E-06 ( -54.92%)
   displ. norm   :     0.0562820 α      lambda       -0.1059917E-05
   maximum displ.:     0.0269023 α      in ANC's #4, #3, #1, ...

........................................................................
.............................. CYCLE   37 ..............................
........................................................................

 iter      E             dE          RMSdq      gap      omega  full diag
   1   -143.1278823 -0.143128E+03  0.530E-03    2.40       0.0  T
   2   -143.1278823 -0.173463E-07  0.299E-03    2.40       3.2  T
   3   -143.1278823  0.278870E-07  0.679E-04    2.40      14.2  T
   4   -143.1278823 -0.235831E-07  0.342E-04    2.40      28.3  T
     SCC iter.                  ...        0 min,  0.457 sec
     gradient                   ...        0 min,  0.127 sec
 * total energy  :  -140.8675503 Eh     change       -0.1212782E-05 Eh
   gradient norm :     0.0001272 Eh/α   predicted    -0.5353995E-06 ( -55.85%)
   displ. norm   :     0.0518620 α      lambda       -0.9665804E-06
   maximum displ.:     0.0242426 α      in ANC's #3, #4, #1, ...

........................................................................
.............................. CYCLE   38 ..............................
........................................................................

 iter      E             dE          RMSdq      gap      omega  full diag
   1   -143.1278897 -0.143128E+03  0.435E-03    2.40       0.0  T
   2   -143.1278897 -0.131076E-07  0.243E-03    2.40       4.0  T
   3   -143.1278897  0.280843E-07  0.643E-04    2.40      15.0  T
   4   -143.1278897 -0.262873E-07  0.302E-04    2.40      32.0  T
     SCC iter.                  ...        0 min,  0.489 sec
     gradient                   ...        0 min,  0.128 sec
 * total energy  :  -140.8675515 Eh     change       -0.1169056E-05 Eh
   gradient norm :     0.0001910 Eh/α   predicted    -0.4880460E-06 ( -58.25%)
   displ. norm   :     0.0653974 α      lambda       -0.1238731E-05
   maximum displ.:     0.0308066 α      in ANC's #3, #4, #6, ...

........................................................................
.............................. CYCLE   39 ..............................
........................................................................

 iter      E             dE          RMSdq      gap      omega  full diag
   1   -143.1279327 -0.143128E+03  0.483E-03    2.40       0.0  T
   2   -143.1279327 -0.186823E-07  0.266E-03    2.40       3.6  T
   3   -143.1279327  0.198715E-07  0.645E-04    2.40      15.0  T
   4   -143.1279327 -0.130384E-07  0.369E-04    2.40      26.2  T
     SCC iter.                  ...        0 min,  0.507 sec
     gradient                   ...        0 min,  0.132 sec
 * total energy  :  -140.8675530 Eh     change       -0.1481484E-05 Eh
   gradient norm :     0.0003004 Eh/α   predicted    -0.6244884E-06 ( -57.85%)
   displ. norm   :     0.0782194 α      lambda       -0.1413431E-05
   maximum displ.:     0.0370130 α      in ANC's #3, #6, #4, ...

........................................................................
.............................. CYCLE   40 ..............................
........................................................................

 iter      E             dE          RMSdq      gap      omega  full diag
   1   -143.1280087 -0.143128E+03  0.535E-03    2.40       0.0  T
   2   -143.1280087 -0.257096E-07  0.290E-03    2.40       3.3  T
   3   -143.1280087  0.195324E-07  0.727E-04    2.40      13.3  T
   4   -143.1280087 -0.729207E-08  0.448E-04    2.40      21.6  T
     SCC iter.                  ...        0 min,  0.394 sec
     gradient                   ...        0 min,  0.126 sec
 * total energy  :  -140.8675546 Eh     change       -0.1673468E-05 Eh
   gradient norm :     0.0003120 Eh/α   predicted    -0.7107372E-06 ( -57.53%)
   displ. norm   :     0.0859131 α      lambda       -0.1451708E-05
   maximum displ.:     0.0409712 α      in ANC's #3, #6, #4, ...

........................................................................
.............................. CYCLE   41 ..............................
........................................................................

 iter      E             dE          RMSdq      gap      omega  full diag
   1   -143.1280980 -0.143128E+03  0.551E-03    2.40       0.0  T
   2   -143.1280980 -0.318157E-07  0.297E-03    2.40       3.3  T
   3   -143.1280980  0.215357E-07  0.783E-04    2.40      12.3  T
   4   -143.1280980 -0.130747E-07  0.450E-04    2.40      21.5  T
     SCC iter.                  ...        0 min,  0.485 sec
     gradient                   ...        0 min,  0.127 sec
 * total energy  :  -140.8675564 Eh     change       -0.1730646E-05 Eh
   gradient norm :     0.0002240 Eh/α   predicted    -0.7298569E-06 ( -57.83%)
   displ. norm   :     0.0925073 α      lambda       -0.1513395E-05
   maximum displ.:     0.0443425 α      in ANC's #3, #6, #4, ...

........................................................................
.............................. CYCLE   42 ..............................
........................................................................

 iter      E             dE          RMSdq      gap      omega  full diag
   1   -143.1281398 -0.143128E+03  0.616E-03    2.40       0.0  T
   2   -143.1281399 -0.456843E-07  0.329E-03    2.40       2.9  T
   3   -143.1281398  0.430057E-07  0.993E-04    2.40       9.7  T
   4   -143.1281399 -0.385824E-07  0.512E-04    2.40      18.9  T
     SCC iter.                  ...        0 min,  0.478 sec
     gradient                   ...        0 min,  0.130 sec
 * total energy  :  -140.8675582 Eh     change       -0.1825836E-05 Eh
   gradient norm :     0.0001421 Eh/α   predicted    -0.7643920E-06 ( -58.13%)
   displ. norm   :     0.1168925 α      lambda       -0.1830428E-05
   maximum displ.:     0.0559361 α      in ANC's #3, #6, #4, ...
 * RMSD in coord.:     0.1027690 α      energy gain  -0.9108829E-04 Eh

generating ANC from exact Hessian ...
Using Lindh-Hessian (1995)
 Shifting diagonal of input Hessian by    1.0101799288181936E-002
 Lowest  eigenvalues of input Hessian
    0.010000    0.000000    0.000000    0.000000    0.000000    0.000000
    0.000000    0.010148    0.010157    0.010178    0.010264    0.010353
    0.010459    0.010652    0.010722    0.010952    0.010995    0.011061
 Highest eigenvalues
    1.980822    1.981834    2.025677    2.072534    2.113578    2.125827


........................................................................
.............................. CYCLE   43 ..............................
........................................................................

 iter      E             dE          RMSdq      gap      omega  full diag
   1   -143.1281451 -0.143128E+03  0.771E-03    2.40       0.0  T
   2   -143.1281451 -0.684352E-07  0.414E-03    2.40       2.3  T
   3   -143.1281451  0.753407E-07  0.124E-03    2.40       7.8  T
   4   -143.1281451 -0.680874E-07  0.640E-04    2.40      15.1  T
   5   -143.1281452 -0.260518E-07  0.211E-04    2.40      45.8  T
     SCC iter.                  ...        0 min,  0.603 sec
     gradient                   ...        0 min,  0.127 sec
 * total energy  :  -140.8675604 Eh     change       -0.2185351E-05 Eh
   gradient norm :     0.0002460 Eh/α   predicted     0.0000000E+00 (-100.00%)
   displ. norm   :     0.0100201 α      lambda       -0.4845922E-07
   maximum displ.:     0.0050027 α      in ANC's #9, #5, #8, ...

........................................................................
.............................. CYCLE   44 ..............................
........................................................................

 iter      E             dE          RMSdq      gap      omega  full diag
   1   -143.1281136 -0.143128E+03  0.102E-03    2.40       0.0  T
   2   -143.1281136 -0.187700E-08  0.573E-04    2.40      16.9  T
   3   -143.1281136  0.126158E-08  0.178E-04    2.40      54.2  T
     SCC iter.                  ...        0 min,  0.287 sec
     gradient                   ...        0 min,  0.127 sec
 * total energy  :  -140.8675612 Eh     change       -0.8224634E-06 Eh
   gradient norm :     0.0001604 Eh/α   predicted    -0.3269892E-06 ( -60.24%)
   displ. norm   :     0.0462353 α      lambda       -0.2292165E-05
   maximum displ.:     0.0219015 α      in ANC's #9, #5, #8, ...

........................................................................
.............................. CYCLE   45 ..............................
........................................................................

 iter      E             dE          RMSdq      gap      omega  full diag
   1   -143.1279531 -0.143128E+03  0.492E-03    2.40       0.0  T
   2   -143.1279531 -0.476459E-07  0.259E-03    2.40       3.7  T
   3   -143.1279531  0.662303E-08  0.735E-04    2.40      13.1  T
   4   -143.1279531 -0.975149E-09  0.452E-04    2.40      21.4  T
     SCC iter.                  ...        0 min,  0.631 sec
     gradient                   ...        0 min,  0.128 sec
 * total energy  :  -140.8675627 Eh     change       -0.1537820E-05 Eh
   gradient norm :     0.0003039 Eh/α   predicted    -0.1149392E-05 ( -25.26%)
   displ. norm   :     0.0274433 α      lambda       -0.1336254E-05
   maximum displ.:     0.0114863 α      in ANC's #9, #8, #5, ...

........................................................................
.............................. CYCLE   46 ..............................
........................................................................

 iter      E             dE          RMSdq      gap      omega  full diag
   1   -143.1278852 -0.143128E+03  0.431E-03    2.40       0.0  T
   2   -143.1278853 -0.784414E-07  0.205E-03    2.40       4.7  T
   3   -143.1278853  0.123914E-07  0.793E-04    2.40      12.2  T
   4   -143.1278853 -0.494941E-08  0.499E-04    2.40      19.4  T
     SCC iter.                  ...        0 min,  0.533 sec
     gradient                   ...        0 min,  0.132 sec
 * total energy  :  -140.8675632 Eh     change       -0.4846506E-06 Eh
   gradient norm :     0.0003740 Eh/α   predicted    -0.6688021E-06 (  38.00%)
   displ. norm   :     0.0075202 α      lambda       -0.7757163E-06
   maximum displ.:     0.0024418 α      in ANC's #6, #31, #22, ...

........................................................................
.............................. CYCLE   47 ..............................
........................................................................

 iter      E             dE          RMSdq      gap      omega  full diag
   1   -143.1279614 -0.143128E+03  0.225E-03    2.40       0.0  T
   2   -143.1279614 -0.191746E-07  0.109E-03    2.40       8.8  T
   3   -143.1279614  0.141766E-07  0.530E-04    2.40      18.2  T
   4   -143.1279614 -0.156949E-07  0.262E-04    2.40      36.9  T
     SCC iter.                  ...        0 min,  0.544 sec
     gradient                   ...        0 min,  0.128 sec
 * total energy  :  -140.8675640 Eh     change       -0.7358164E-06 Eh
   gradient norm :     0.0002022 Eh/α   predicted    -0.3879918E-06 ( -47.27%)
   displ. norm   :     0.0132591 α      lambda       -0.6392656E-06
   maximum displ.:     0.0046739 α      in ANC's #7, #6, #8, ...

........................................................................
.............................. CYCLE   48 ..............................
........................................................................

 iter      E             dE          RMSdq      gap      omega  full diag
   1   -143.1279946 -0.143128E+03  0.264E-03    2.40       0.0  T
   2   -143.1279946 -0.227193E-07  0.134E-03    2.40       7.2  T
   3   -143.1279946  0.781782E-08  0.533E-04    2.40      18.1  T
   4   -143.1279946 -0.115784E-07  0.224E-04    2.40      43.2  T
     SCC iter.                  ...        0 min,  0.467 sec
     gradient                   ...        0 min,  0.132 sec
 * total energy  :  -140.8675645 Eh     change       -0.5319541E-06 Eh
   gradient norm :     0.0001634 Eh/α   predicted    -0.3224036E-06 ( -39.39%)
   displ. norm   :     0.0257220 α      lambda       -0.5521619E-06
   maximum displ.:     0.0099352 α      in ANC's #5, #7, #8, ...

........................................................................
.............................. CYCLE   49 ..............................
........................................................................

 iter      E             dE          RMSdq      gap      omega  full diag
   1   -143.1279965 -0.143128E+03  0.246E-03    2.40       0.0  T
   2   -143.1279965 -0.527558E-08  0.138E-03    2.40       7.0  T
   3   -143.1279964  0.272224E-07  0.528E-04    2.40      18.3  T
   4   -143.1279965 -0.291590E-07  0.173E-04    2.40      56.0  T
     SCC iter.                  ...        0 min,  0.425 sec
     gradient                   ...        0 min,  0.125 sec
 * total energy  :  -140.8675651 Eh     change       -0.6222046E-06 Eh
   gradient norm :     0.0001725 Eh/α   predicted    -0.2766848E-06 ( -55.53%)
   displ. norm   :     0.0467558 α      lambda       -0.7588982E-06
   maximum displ.:     0.0182581 α      in ANC's #5, #8, #7, ...

........................................................................
.............................. CYCLE   50 ..............................
........................................................................

 iter      E             dE          RMSdq      gap      omega  full diag
   1   -143.1279706 -0.143128E+03  0.390E-03    2.40       0.0  T
   2   -143.1279706 -0.965881E-08  0.224E-03    2.40       4.3  T
   3   -143.1279706  0.908256E-08  0.413E-04    2.40      23.4  T
   4   -143.1279706 -0.647091E-08  0.229E-04    2.40      42.2  T
     SCC iter.                  ...        0 min,  0.440 sec
     gradient                   ...        0 min,  0.127 sec
 * total energy  :  -140.8675659 Eh     change       -0.8069877E-06 Eh
   gradient norm :     0.0001732 Eh/α   predicted    -0.3827431E-06 ( -52.57%)
   displ. norm   :     0.0493302 α      lambda       -0.6579859E-06
   maximum displ.:     0.0196147 α      in ANC's #5, #6, #7, ...

........................................................................
.............................. CYCLE   51 ..............................
........................................................................

 iter      E             dE          RMSdq      gap      omega  full diag
   1   -143.1279369 -0.143128E+03  0.407E-03    2.40       0.0  T
   2   -143.1279369 -0.881323E-08  0.234E-03    2.39       4.1  T
   3   -143.1279369  0.267366E-07  0.532E-04    2.39      18.2  T
   4   -143.1279369 -0.270105E-07  0.215E-04    2.39      44.9  T
     SCC iter.                  ...        0 min,  0.486 sec
     gradient                   ...        0 min,  0.127 sec
 * total energy  :  -140.8675666 Eh     change       -0.6384878E-06 Eh
   gradient norm :     0.0001444 Eh/α   predicted    -0.3309319E-06 ( -48.17%)
   displ. norm   :     0.0394105 α      lambda       -0.5271069E-06
   maximum displ.:     0.0158456 α      in ANC's #6, #5, #3, ...

........................................................................
.............................. CYCLE   52 ..............................
........................................................................

 iter      E             dE          RMSdq      gap      omega  full diag
   1   -143.1279323 -0.143128E+03  0.326E-03    2.39       0.0  T
   2   -143.1279323 -0.799136E-08  0.182E-03    2.39       5.3  T
   3   -143.1279323  0.116356E-07  0.465E-04    2.39      20.8  T
   4   -143.1279323 -0.103469E-07  0.240E-04    2.39      40.3  T
     SCC iter.                  ...        0 min,  0.533 sec
     gradient                   ...        0 min,  0.127 sec
 * total energy  :  -140.8675671 Eh     change       -0.5753295E-06 Eh
   gradient norm :     0.0001252 Eh/α   predicted    -0.2679817E-06 ( -53.42%)
   displ. norm   :     0.0422722 α      lambda       -0.6398047E-06
   maximum displ.:     0.0176371 α      in ANC's #6, #5, #3, ...

........................................................................
.............................. CYCLE   53 ..............................
........................................................................

 iter      E             dE          RMSdq      gap      omega  full diag
   1   -143.1279572 -0.143128E+03  0.328E-03    2.39       0.0  T
   2   -143.1279572 -0.903151E-08  0.184E-03    2.39       5.2  T
   3   -143.1279572  0.232776E-07  0.547E-04    2.39      17.7  T
   4   -143.1279572 -0.242094E-07  0.226E-04    2.39      42.8  T
     SCC iter.                  ...        0 min,  0.421 sec
     gradient                   ...        0 min,  0.132 sec
 * total energy  :  -140.8675679 Eh     change       -0.7437714E-06 Eh
   gradient norm :     0.0001255 Eh/α   predicted    -0.3211833E-06 ( -56.82%)
   displ. norm   :     0.0549580 α      lambda       -0.7159711E-06
   maximum displ.:     0.0228013 α      in ANC's #6, #3, #5, ...

........................................................................
.............................. CYCLE   54 ..............................
........................................................................

 iter      E             dE          RMSdq      gap      omega  full diag
   1   -143.1279621 -0.143128E+03  0.384E-03    2.39       0.0  T
   2   -143.1279621 -0.113954E-07  0.218E-03    2.39       4.4  T
   3   -143.1279621  0.260457E-07  0.602E-04    2.39      16.1  T
   4   -143.1279621 -0.270169E-07  0.262E-04    2.39      36.8  T
     SCC iter.                  ...        0 min,  0.411 sec
     gradient                   ...        0 min,  0.127 sec
 * total energy  :  -140.8675686 Eh     change       -0.7584696E-06 Eh
   gradient norm :     0.0001588 Eh/α   predicted    -0.3600972E-06 ( -52.52%)
   displ. norm   :     0.0430462 α      lambda       -0.4777205E-06
   maximum displ.:     0.0171759 α      in ANC's #6, #3, #5, ...

........................................................................
.............................. CYCLE   55 ..............................
........................................................................

 iter      E             dE          RMSdq      gap      omega  full diag
   1   -143.1279905 -0.143128E+03  0.323E-03    2.39       0.0  T
   2   -143.1279906 -0.142179E-07  0.172E-03    2.39       5.6  T
   3   -143.1279905  0.170132E-07  0.555E-04    2.39      17.4  T
   4   -143.1279906 -0.149573E-07  0.306E-04    2.39      31.6  T
     SCC iter.                  ...        0 min,  0.446 sec
     gradient                   ...        0 min,  0.128 sec
 * total energy  :  -140.8675692 Eh     change       -0.5178566E-06 Eh
   gradient norm :     0.0001359 Eh/α   predicted    -0.2410609E-06 ( -53.45%)
   displ. norm   :     0.0356567 α      lambda       -0.4430728E-06
   maximum displ.:     0.0147196 α      in ANC's #3, #4, #6, ...

........................................................................
.............................. CYCLE   56 ..............................
........................................................................

 iter      E             dE          RMSdq      gap      omega  full diag
   1   -143.1280021 -0.143128E+03  0.245E-03    2.39       0.0  T
   2   -143.1280021 -0.497528E-08  0.138E-03    2.39       7.0  T
   3   -143.1280021  0.145790E-07  0.419E-04    2.39      23.1  T
   4   -143.1280021 -0.150983E-07  0.171E-04    2.39      56.5  T
     SCC iter.                  ...        0 min,  0.488 sec
     gradient                   ...        0 min,  0.128 sec
 * total energy  :  -140.8675697 Eh     change       -0.5151851E-06 Eh
   gradient norm :     0.0001049 Eh/α   predicted    -0.2246577E-06 ( -56.39%)
   displ. norm   :     0.0351757 α      lambda       -0.4429384E-06
   maximum displ.:     0.0167628 α      in ANC's #4, #3, #6, ...

........................................................................
.............................. CYCLE   57 ..............................
........................................................................

 iter      E             dE          RMSdq      gap      omega  full diag
   1   -143.1280027 -0.143128E+03  0.273E-03    2.39       0.0  T
   2   -143.1280027 -0.834842E-08  0.150E-03    2.39       6.4  T
   3   -143.1280027  0.793520E-08  0.388E-04    2.39      24.9  T
   4   -143.1280027 -0.599263E-08  0.218E-04    2.39      44.4  T
     SCC iter.                  ...        0 min,  0.505 sec
     gradient                   ...        0 min,  0.132 sec
 * total energy  :  -140.8675702 Eh     change       -0.5148807E-06 Eh
   gradient norm :     0.0000978 Eh/α   predicted    -0.2258103E-06 ( -56.14%)
   displ. norm   :     0.0269439 α      lambda       -0.3114256E-06
   maximum displ.:     0.0142742 α      in ANC's #4, #3, #2, ...

........................................................................
.............................. CYCLE   58 ..............................
........................................................................

 iter      E             dE          RMSdq      gap      omega  full diag
   1   -143.1279851 -0.143128E+03  0.189E-03    2.39       0.0  T
   2   -143.1279851 -0.189854E-08  0.108E-03    2.39       8.9  T
   3   -143.1279851  0.114198E-07  0.332E-04    2.39      29.2  T
   4   -143.1279851 -0.124084E-07  0.934E-05    2.39     103.5  T
     SCC iter.                  ...        0 min,  0.475 sec
     gradient                   ...        0 min,  0.128 sec
 * total energy  :  -140.8675706 Eh     change       -0.4075203E-06 Eh
   gradient norm :     0.0000937 Eh/α   predicted    -0.1591122E-06 ( -60.96%)
   displ. norm   :     0.0272108 α      lambda       -0.3655932E-06
   maximum displ.:     0.0152843 α      in ANC's #4, #3, #2, ...

........................................................................
.............................. CYCLE   59 ..............................
........................................................................

 iter      E             dE          RMSdq      gap      omega  full diag
   1   -143.1279730 -0.143128E+03  0.183E-03    2.39       0.0  T
   2   -143.1279730 -0.168274E-08  0.106E-03    2.39       9.1  T
   3   -143.1279730  0.433627E-08  0.208E-04    2.39      46.4  T
   4   -143.1279730 -0.462703E-08  0.776E-05    2.39     124.6  T
     SCC iter.                  ...        0 min,  0.548 sec
     gradient                   ...        0 min,  0.132 sec
 * total energy  :  -140.8675711 Eh     change       -0.4980148E-06 Eh
   gradient norm :     0.0001009 Eh/α   predicted    -0.1869647E-06 ( -62.46%)
   displ. norm   :     0.0373913 α      lambda       -0.5055894E-06
   maximum displ.:     0.0214243 α      in ANC's #4, #3, #2, ...

........................................................................
.............................. CYCLE   60 ..............................
........................................................................

 iter      E             dE          RMSdq      gap      omega  full diag
   1   -143.1279583 -0.143128E+03  0.261E-03    2.39       0.0  T
   2   -143.1279583 -0.284720E-08  0.151E-03    2.39       6.4  T
   3   -143.1279583  0.609870E-08  0.267E-04    2.39      36.2  T
   4   -143.1279583 -0.658633E-08  0.110E-04    2.39      88.0  T
     SCC iter.                  ...        0 min,  0.499 sec
     gradient                   ...        0 min,  0.132 sec
 * total energy  :  -140.8675717 Eh     change       -0.6299119E-06 Eh
   gradient norm :     0.0001084 Eh/α   predicted    -0.2552211E-06 ( -59.48%)
   displ. norm   :     0.0393635 α      lambda       -0.4252597E-06
   maximum displ.:     0.0226962 α      in ANC's #4, #3, #2, ...

........................................................................
.............................. CYCLE   61 ..............................
........................................................................

 iter      E             dE          RMSdq      gap      omega  full diag
   1   -143.1279576 -0.143128E+03  0.273E-03    2.39       0.0  T
   2   -143.1279576 -0.363468E-08  0.157E-03    2.39       6.2  T
   3   -143.1279576  0.868363E-08  0.319E-04    2.39      30.3  T
   4   -143.1279576 -0.812449E-08  0.157E-04    2.39      61.6  T
     SCC iter.                  ...        0 min,  0.584 sec
     gradient                   ...        0 min,  0.128 sec
 * total energy  :  -140.8675722 Eh     change       -0.5080879E-06 Eh
   gradient norm :     0.0000931 Eh/α   predicted    -0.2162702E-06 ( -57.43%)
   displ. norm   :     0.0346861 α      lambda       -0.3211153E-06
   maximum displ.:     0.0202432 α      in ANC's #4, #3, #2, ...

........................................................................
.............................. CYCLE   62 ..............................
........................................................................

 iter      E             dE          RMSdq      gap      omega  full diag
   1   -143.1279598 -0.143128E+03  0.240E-03    2.39       0.0  T
   2   -143.1279598 -0.290279E-08  0.137E-03    2.39       7.0  T
   3   -143.1279598  0.654879E-08  0.288E-04    2.39      33.5  T
   4   -143.1279598 -0.579357E-08  0.148E-04    2.39      65.2  T
     SCC iter.                  ...        0 min,  0.511 sec
     gradient                   ...        0 min,  0.133 sec
 * total energy  :  -140.8675727 Eh     change       -0.4187276E-06 Eh
   gradient norm :     0.0000695 Eh/α   predicted    -0.1637648E-06 ( -60.89%)
   displ. norm   :     0.0373784 α      lambda       -0.3752776E-06
   maximum displ.:     0.0217089 α      in ANC's #4, #3, #2, ...

........................................................................
.............................. CYCLE   63 ..............................
........................................................................

 iter      E             dE          RMSdq      gap      omega  full diag
   1   -143.1279657 -0.143128E+03  0.263E-03    2.39       0.0  T
   2   -143.1279657 -0.394567E-08  0.149E-03    2.39       6.5  T
   3   -143.1279657  0.651269E-08  0.313E-04    2.39      30.9  T
   4   -143.1279657 -0.498198E-08  0.175E-04    2.39      55.4  T
     SCC iter.                  ...        0 min,  0.461 sec
     gradient                   ...        0 min,  0.132 sec
 * total energy  :  -140.8675732 Eh     change       -0.5055318E-06 Eh
   gradient norm :     0.0000734 Eh/α   predicted    -0.1897578E-06 ( -62.46%)
[...]
    83   1 H        0.925     0.072     2.068     2.249
    84   1 H        0.925     0.075     2.032     2.229
    85   1 H        0.926     0.044     2.401     2.423
    86   1 H        0.926     0.052     2.293     2.368
    87   1 H        0.926     0.047     2.360     2.403
    88   1 H        0.926     0.048     2.349     2.397
    89   1 H        0.926     0.044     2.401     2.423
    90   1 H        0.926     0.036     2.501     2.473
    91   1 H        0.926     0.041     2.431     2.438
    92   1 H        0.926     0.050     2.325     2.384
    93   1 H        0.926     0.046     2.372     2.408
    94   1 H        0.926     0.049     2.330     2.387
    95   1 H        0.926     0.047     2.361     2.403
    96   1 H        0.926     0.038     2.474     2.460
    97   1 H        0.925     0.071     2.073     2.252
    98   1 H        0.925     0.061     2.192     2.315
    99   1 H        0.924     0.044     2.402     2.424
   100   1 H        0.924     0.039     2.458     2.452
   101   1 H        0.925     0.045     2.377     2.411
   102   1 H        0.925     0.047     2.353     2.399
   103   1 H        0.925     0.039     2.459     2.452
   104   1 H        0.925     0.047     2.362     2.404
   105   1 H        0.925     0.027     2.633     2.538
   106   1 H        0.925     0.047     2.363     2.404
   107   1 H        0.926     0.049     2.330     2.387

 Mol. C6AA /au·bohr⁶  :     129426.995874
 Mol. C8AA /au·bohr⁸  :    3322778.421091
 Mol. α(0) /au        :        566.947797


Wiberg/Mayer (AO) data.
largest (>0.10) Wiberg bond orders for each atom

 ---------------------------------------------------------------------------
     #   Z sym  total        # sym  WBO       # sym  WBO       # sym  WBO
 ---------------------------------------------------------------------------
     1   6 C    3.993 --     2 C    0.994    52 H    0.987    53 H    0.985
                            51 H    0.984
     2   6 C    3.993 --     4 C    1.001     3 C    0.995     1 C    0.994
                            54 H    0.967
     3   6 C    3.994 --     2 C    0.995    57 H    0.988    56 H    0.985
                            55 H    0.984
     4   6 C    3.976 --    50 C    1.415     5 C    1.394     2 C    1.001
     5   6 C    3.988 --     6 C    1.430     4 C    1.394    58 H    0.958
     6   6 C    3.983 --     5 C    1.430    10 C    1.352     7 C    1.002
     7   6 C    3.995 --     9 C    1.007     6 C    1.002     8 C    0.987
                            59 H    0.952
     8   6 C    3.990 --     7 C    0.987    60 H    0.986    61 H    0.981
                            62 H    0.980
     9   6 C    3.995 --     7 C    1.007    64 H    0.984    65 H    0.983
                            63 H    0.982
    10   6 C    3.936 --    46 C    1.379     6 C    1.352    11 S    0.981
    11  16 S    2.368 --    12 S    1.130    10 C    0.981
    12  16 S    2.473 --    11 S    1.130    13 P    1.010
    13  15 P    5.121 --    14 N    1.243    22 N    1.193    44 N    1.177
                            12 S    1.010
    14   7 N    3.382 --    13 P    1.243    15 C    0.932    18 C    0.921
    15   6 C    3.956 --    16 C    1.002    17 C    0.998    14 N    0.932
                            66 H    0.923
    16   6 C    3.989 --    15 C    1.002    68 H    0.981    67 H    0.981
                            69 H    0.979
    17   6 C    3.988 --    15 C    0.998    72 H    0.983    71 H    0.979
                            70 H    0.975
    18   6 C    3.954 --    19 C    0.997    20 C    0.995    21 C    0.995
                            14 N    0.921
    19   6 C    3.982 --    18 C    0.997    75 H    0.981    73 H    0.979
                            74 H    0.957
    20   6 C    3.987 --    18 C    0.995    78 H    0.979    77 H    0.978
                            76 H    0.974
    21   6 C    3.991 --    18 C    0.995    80 H    0.980    81 H    0.979
                            79 H    0.959
    22   7 N    3.397 --    13 P    1.193    24 C    0.975    23 C    0.970
    23   6 C    3.960 --    83 H    0.978    82 H    0.971    22 N    0.970
                            84 H    0.963
    24   6 C    3.951 --    33 C    1.455    25 C    1.285    22 N    0.975
    25   6 C    3.988 --    26 C    1.557    24 C    1.285    85 H    0.963
    26   6 C    3.984 --    25 C    1.557    27 C    1.274    86 H    0.966
                            33 C    0.105
    27   6 C    3.988 --    28 C    1.279    26 C    1.274    32 C    1.255
    28   6 C    3.988 --    29 C    1.553    27 C    1.279    87 H    0.967
                            31 C    0.118
    29   6 C    3.986 --    28 C    1.553    30 C    1.323    88 H    0.970
    30   6 C    3.990 --    31 C    1.551    29 C    1.323    89 H    0.970
    31   6 C    3.989 --    30 C    1.551    32 C    1.283    90 H    0.964
                            28 C    0.118
    32   6 C    3.987 --    31 C    1.283    27 C    1.255    33 C    1.230
    33   6 C    3.986 --    24 C    1.455    32 C    1.230    34 C    1.033
                            26 C    0.105
    34   6 C    3.985 --    35 C    1.444    43 C    1.235    33 C    1.033
                            37 C    0.106
    35   6 C    3.950 --    34 C    1.444    36 C    1.281    44 N    0.977
    36   6 C    3.985 --    37 C    1.555    35 C    1.281    91 H    0.963
    37   6 C    3.985 --    36 C    1.555    38 C    1.274    92 H    0.966
                            34 C    0.106
    38   6 C    3.988 --    39 C    1.280    37 C    1.274    43 C    1.254
    39   6 C    3.989 --    40 C    1.555    38 C    1.280    93 H    0.967
                            42 C    0.117
    40   6 C    3.985 --    39 C    1.555    41 C    1.322    94 H    0.970
    41   6 C    3.990 --    42 C    1.553    40 C    1.322    95 H    0.970
    42   6 C    3.989 --    41 C    1.553    43 C    1.283    96 H    0.966
                            39 C    0.117
    43   6 C    3.987 --    42 C    1.283    38 C    1.254    34 C    1.235
    44   7 N    3.392 --    13 P    1.177    35 C    0.977    45 C    0.973
    45   6 C    3.964 --    97 H    0.974    44 N    0.973    99 H    0.973
                            98 H    0.964
    46   6 C    3.983 --    50 C    1.408    10 C    1.379    47 C    1.001
    47   6 C    3.993 --    46 C    1.001    49 C    0.996    48 C    0.992
                           100 H    0.953
    48   6 C    3.993 --    47 C    0.992   103 H    0.987   102 H    0.984
                           101 H    0.983
    49   6 C    3.994 --    47 C    0.996   105 H    0.985   104 H    0.985
                           106 H    0.983
    50   6 C    3.988 --     4 C    1.415    46 C    1.408   107 H    0.959
    51   1 H    0.997 --     1 C    0.984
    52   1 H    0.999 --     1 C    0.987
    53   1 H    0.998 --     1 C    0.985
    54   1 H    0.998 --     2 C    0.967
    55   1 H    0.997 --     3 C    0.984
    56   1 H    0.998 --     3 C    0.985
    57   1 H    0.999 --     3 C    0.988
    58   1 H    0.996 --     5 C    0.958
    59   1 H    0.998 --     7 C    0.952
    60   1 H    0.998 --     8 C    0.986
    61   1 H    0.997 --     8 C    0.981
    62   1 H    0.999 --     8 C    0.980
    63   1 H    0.998 --     9 C    0.982
    64   1 H    0.999 --     9 C    0.984
    65   1 H    0.998 --     9 C    0.983
    66   1 H    0.996 --    15 C    0.923
    67   1 H    0.996 --    16 C    0.981
    68   1 H    0.998 --    16 C    0.981
    69   1 H    0.995 --    16 C    0.979
    70   1 H    0.997 --    17 C    0.975
    71   1 H    0.995 --    17 C    0.979
    72   1 H    0.997 --    17 C    0.983
    73   1 H    0.995 --    19 C    0.979
    74   1 H    0.997 --    19 C    0.957
    75   1 H    0.997 --    19 C    0.981
    76   1 H    0.997 --    20 C    0.974
    77   1 H    0.995 --    20 C    0.978
    78   1 H    0.996 --    20 C    0.979
    79   1 H    0.997 --    21 C    0.959
    80   1 H    0.998 --    21 C    0.980
    81   1 H    0.995 --    21 C    0.979
    82   1 H    0.997 --    23 C    0.971
    83   1 H    0.994 --    23 C    0.978
    84   1 H    0.994 --    23 C    0.963
    85   1 H    0.997 --    25 C    0.963
    86   1 H    0.996 --    26 C    0.966
    87   1 H    0.997 --    28 C    0.967
    88   1 H    0.997 --    29 C    0.970
    89   1 H    0.998 --    30 C    0.970
    90   1 H    0.998 --    31 C    0.964
    91   1 H    0.997 --    36 C    0.963
    92   1 H    0.996 --    37 C    0.966
    93   1 H    0.997 --    39 C    0.967
    94   1 H    0.997 --    40 C    0.970
    95   1 H    0.997 --    41 C    0.970
    96   1 H    0.998 --    42 C    0.966
    97   1 H    0.994 --    45 C    0.974
    98   1 H    0.995 --    45 C    0.964
    99   1 H    0.998 --    45 C    0.973
   100   1 H    0.998 --    47 C    0.953
   101   1 H    0.997 --    48 C    0.983
   102   1 H    0.997 --    48 C    0.984
   103   1 H    0.998 --    48 C    0.987
   104   1 H    0.997 --    49 C    0.985
   105   1 H    0.999 --    49 C    0.985
   106   1 H    0.998 --    49 C    0.983
   107   1 H    0.997 --    50 C    0.959
 ---------------------------------------------------------------------------

Topologies differ in total number of bonds
Writing topology from bond orders to xtbtopo.mol

molecular dipole:
                 x           y           z       tot (Debye)
 q only:       -1.698      -1.556       0.562
   full:       -1.556      -1.441       0.653       5.639
molecular quadrupole (traceless):
                xx          xy          yy          xz          yz          zz
 q only:       14.054       6.875      10.334      -6.069      -3.066     -24.388
  q+dip:       10.687       2.932       8.517      -5.112      -2.179     -19.204
   full:       13.804       6.367       8.225      -5.812      -3.862     -22.030

           -------------------------------------------------
          |                Geometry Summary                 |
           -------------------------------------------------

      molecular mass/u    :      723.0484488
   center of mass at/Å    :       -0.2768646       0.1891078      -0.1737335
  moments of inertia/u·Å² :        0.6963407E+04   0.9489093E+04   0.1207212E+05
rotational constants/cm⁻¹ :        0.2420888E-02   0.1776527E-02   0.1396410E-02

 * 106 selected distances

     #   Z          #   Z                                           value/Å
     1   6 C        2   6 C                                       1.5303379
     2   6 C        3   6 C                                       1.5302683
     4   6 C        5   6 C                                       1.3890900
     5   6 C        6   6 C                                       1.3842764
     7   6 C        8   6 C                                       1.5330945
     7   6 C        9   6 C                                       1.5264757
     6   6 C       10   6 C                                       1.4004771
    11  16 S       12  16 S                                       2.0590159
    12  16 S       13  15 P                                       2.1223110 (max)
    13  15 P       14   7 N                                       1.6613799
    14   7 N       15   6 C                                       1.4820594
    15   6 C       16   6 C                                       1.5301535
    15   6 C       17   6 C                                       1.5335701
    18   6 C       19   6 C                                       1.5297567
    18   6 C       20   6 C                                       1.5310485
    18   6 C       21   6 C                                       1.5315704
    13  15 P       22   7 N                                       1.6667194
    22   7 N       23   6 C                                       1.4608916
    22   7 N       24   6 C                                       1.4330573
    24   6 C       25   6 C                                       1.4073454
    25   6 C       26   6 C                                       1.3637491
    26   6 C       27   6 C                                       1.4089422
    27   6 C       28   6 C                                       1.4103675
    28   6 C       29   6 C                                       1.3665624
    29   6 C       30   6 C                                       1.4028502
    30   6 C       31   6 C                                       1.3678104
    27   6 C       32   6 C                                       1.4191687
    31   6 C       32   6 C                                       1.4120318
    24   6 C       33   6 C                                       1.3769636
    32   6 C       33   6 C                                       1.4255822
    34   6 C       35   6 C                                       1.3800009
    35   6 C       36   6 C                                       1.4084998
    36   6 C       37   6 C                                       1.3647124
    37   6 C       38   6 C                                       1.4094548
    38   6 C       39   6 C                                       1.4100885
    39   6 C       40   6 C                                       1.3664246
    40   6 C       41   6 C                                       1.4031392
    41   6 C       42   6 C                                       1.3671689
    34   6 C       43   6 C                                       1.4240158
    38   6 C       43   6 C                                       1.4191358
    42   6 C       43   6 C                                       1.4116860
    13  15 P       44   7 N                                       1.6715381
    35   6 C       44   7 N                                       1.4305196
    44   7 N       45   6 C                                       1.4592782
    10   6 C       46   6 C                                       1.3956524
    47   6 C       48   6 C                                       1.5308335
    47   6 C       49   6 C                                       1.5298807
     4   6 C       50   6 C                                       1.3850920
    46   6 C       50   6 C                                       1.3889014
     1   6 C       51   1 H                                       1.0869089
     1   6 C       52   1 H                                       1.0876522
     1   6 C       53   1 H                                       1.0870102
     2   6 C       54   1 H                                       1.0950330
     3   6 C       55   1 H                                       1.0868430
     3   6 C       56   1 H                                       1.0870810
     3   6 C       57   1 H                                       1.0881399
     5   6 C       58   1 H                                       1.0766343 (min)
     7   6 C       59   1 H                                       1.0959689
     8   6 C       60   1 H                                       1.0877663
     8   6 C       61   1 H                                       1.0863117
     8   6 C       62   1 H                                       1.0889946
     9   6 C       63   1 H                                       1.0872259
     9   6 C       64   1 H                                       1.0883331
     9   6 C       65   1 H                                       1.0868002
    15   6 C       66   1 H                                       1.0973794
    16   6 C       67   1 H                                       1.0877056
    16   6 C       68   1 H                                       1.0868839
    16   6 C       69   1 H                                       1.0841793
    17   6 C       70   1 H                                       1.0847069
    17   6 C       71   1 H                                       1.0866010
    17   6 C       72   1 H                                       1.0862737
    19   6 C       73   1 H                                       1.0863081
    19   6 C       74   1 H                                       1.0877321
    19   6 C       75   1 H                                       1.0874732
    20   6 C       76   1 H                                       1.0824886
    20   6 C       77   1 H                                       1.0875264
    20   6 C       78   1 H                                       1.0841829
    21   6 C       79   1 H                                       1.0852223
    21   6 C       80   1 H                                       1.0877168
    21   6 C       81   1 H                                       1.0865685
    23   6 C       82   1 H                                       1.0931586
    23   6 C       83   1 H                                       1.0891320
    23   6 C       84   1 H                                       1.0862928
    25   6 C       85   1 H                                       1.0776468
    26   6 C       86   1 H                                       1.0791456
    28   6 C       87   1 H                                       1.0797028
    29   6 C       88   1 H                                       1.0790446
    30   6 C       89   1 H                                       1.0795575
    31   6 C       90   1 H                                       1.0791087
    36   6 C       91   1 H                                       1.0774722
    37   6 C       92   1 H                                       1.0795047
    39   6 C       93   1 H                                       1.0798847
    40   6 C       94   1 H                                       1.0790011
    41   6 C       95   1 H                                       1.0792301
    42   6 C       96   1 H                                       1.0792243
    45   6 C       97   1 H                                       1.0883740
    45   6 C       98   1 H                                       1.0898594
    45   6 C       99   1 H                                       1.0929509
    47   6 C      100   1 H                                       1.0948800
    48   6 C      101   1 H                                       1.0864525
    48   6 C      102   1 H                                       1.0869973
    48   6 C      103   1 H                                       1.0877050
    49   6 C      104   1 H                                       1.0867617
    49   6 C      105   1 H                                       1.0882681
    49   6 C      106   1 H                                       1.0862992
    50   6 C      107   1 H                                       1.0790477

 * 6 distinct bonds (by element types)

   Z      Z             #   av. dist./Å        max./Å        min./Å
   1 H    6 C          57     1.0857957     1.0973794     1.0766343
   6 C    6 C          39     1.4334918     1.5335701     1.3637491
   6 C    7 N           5     1.4531612     1.4820594     1.4305196
   7 N   15 P           3     1.6665458     1.6715381     1.6613799
  15 P   16 S           1     2.1223110     2.1223110     2.1223110
  16 S   16 S           1     2.0590159     2.0590159     2.0590159


optimized geometry written to: xtbopt.xyz


           -------------------------------------------------
          | TOTAL ENERGY             -140.867578116536 Eh   |
          | GRADIENT NORM               0.000044713005 Eh/α |
          | HOMO-LUMO GAP               2.389337243810 eV   |
           -------------------------------------------------

------------------------------------------------------------------------
 * finished run on 2024/12/16 at 20:51:51.898     
------------------------------------------------------------------------
 total:
 * wall-time:     0 d,  0 h,  1 min, 21.384 sec
 *  cpu-time:     0 d,  0 h, 10 min, 36.093 sec
 * ratio c/w:     7.816 speedup
 SCF:
 * wall-time:     0 d,  0 h,  0 min,  2.310 sec
 *  cpu-time:     0 d,  0 h,  0 min, 18.245 sec
 * ratio c/w:     7.897 speedup
 ANC optimizer:
 * wall-time:     0 d,  0 h,  1 min, 18.915 sec
 *  cpu-time:     0 d,  0 h, 10 min, 16.650 sec
 * ratio c/w:     7.814 speedup

