      -----------------------------------------------------------      
     |                   =====================                   |     
     |                           x T B                           |     
     |                   =====================                   |     
     |                         S. Grimme                         |     
     |          Mulliken Center for Theoretical Chemistry        |     
     |                    University of Bonn                     |     
      -----------------------------------------------------------      

   * xtb version 6.7.1 (edcfbbe) compiled by 'conda@3ef47c1a292c' on 2024-11-25

   xtb is free software: you can redistribute it and/or modify it under
   the terms of the GNU Lesser General Public License as published by
   the Free Software Foundation, either version 3 of the License, or
   (at your option) any later version.
   
   xtb is distributed in the hope that it will be useful,
   but WITHOUT ANY WARRANTY; without even the implied warranty of
   MERCHANTABILITY or FITNESS FOR A PARTICULAR PURPOSE.  See the
   GNU Lesser General Public License for more details.
   
   Cite this work as:
   * C. Bannwarth, E. Caldeweyher, S. Ehlert, A. Hansen, P. Pracht,
     J. Seibert, S. Spicher, S. Grimme, WIREs Comput. Mol. Sci., 2020, 11,
     e01493. DOI: 10.1002/wcms.1493
   
   for GFN2-xTB:
   * C. Bannwarth, S. Ehlert and S. Grimme., J. Chem. Theory Comput., 2019,
     15, 1652-1671. DOI: 10.1021/acs.jctc.8b01176
   for GFN1-xTB:
   * S. Grimme, C. Bannwarth, P. Shushkov, J. Chem. Theory Comput., 2017,
     13, 1989-2009. DOI: 10.1021/acs.jctc.7b00118
   for GFN0-xTB:
   * P. Pracht, E. Caldeweyher, S. Ehlert, S. Grimme, ChemRxiv, 2019, preprint.
     DOI: 10.26434/chemrxiv.8326202.v1
   for GFN-FF:
   * S. Spicher and S. Grimme, Angew. Chem. Int. Ed., 2020, 59, 15665-15673.
     DOI: 10.1002/anie.202004239
   
   for ALPB and GBSA implicit solvation:
   * S. Ehlert, M. Stahn, S. Spicher, S. Grimme, J. Chem. Theory Comput.,
     2021, 17, 4250-4261. DOI: 10.1021/acs.jctc.1c00471
   
   for ddCOSMO and CPCM-X implicit solvation:
   * M. Stahn, S. Ehlert, S. Grimme, J. Phys. Chem. A,
     2023, XX, XXXX-XXXX. DOI: 10.1021/acs.jpca.3c04382
   
   for DFT-D4:
   * E. Caldeweyher, C. Bannwarth and S. Grimme, J. Chem. Phys., 2017,
     147, 034112. DOI: 10.1063/1.4993215
   * E. Caldeweyher, S. Ehlert, A. Hansen, H. Neugebauer, S. Spicher,
     C. Bannwarth and S. Grimme, J. Chem. Phys., 2019, 150, 154122.
     DOI: 10.1063/1.5090222
   * E. Caldeweyher, J.-M. Mewes, S. Ehlert and S. Grimme, Phys. Chem. Chem. Phys.
     2020, 22, 8499-8512. DOI: 10.1039/D0CP00502A
   
   for sTDA-xTB:
   * S. Grimme and C. Bannwarth, J. Chem. Phys., 2016, 145, 054103.
     DOI: 10.1063/1.4959605
   
   in the mass-spec context:
   * V. Asgeirsson, C. Bauer and S. Grimme, Chem. Sci., 2017, 8, 4879.
     DOI: 10.1039/c7sc00601b
   * J. Koopman and S. Grimme, ACS Omega 2019, 4, 12, 15120-15133.
     DOI: 10.1021/acsomega.9b02011
   
   for metadynamics refer to:
   * S. Grimme, J. Chem. Theory Comput., 2019, 155, 2847-2862
     DOI: 10.1021/acs.jctc.9b00143
   
   for SPH calculations refer to:
   * S. Spicher and S. Grimme, J. Chem. Theory Comput., 2021, 17, 1701-1714
     DOI: 10.1021/acs.jctc.0c01306
   
   for ONIOM refer to:
   * C. Plett, A. Katbashev, S. Ehlert, S. Grimme, M. Bursch,
     Phys. Chem. Chem. Phys., 2023, 25, 17860-17868. DOI: 10.1039/D3CP02178E
   
   for DIPRO refer to:
   * J. Kohn, N. Gildemeister, S. Grimme, D. Fazzi, A. Hansen,
     J. Chem. Phys., 2023, just accepted.
   
   for PTB refer to:
   * S. Grimme, M. Mueller, A. Hansen, J. Chem. Phys., 2023, 158, 124111.
     DOI: 10.1063/5.0137838
   
   with help from (in alphabetical order)
   P. Atkinson, C. Bannwarth, F. Bohle, G. Brandenburg, E. Caldeweyher
   M. Checinski, S. Dohm, S. Ehlert, S. Ehrlich, I. Gerasimov, C. Hölzer
   A. Katbashev, J. Kohn, J. Koopman, C. Lavigne, S. Lehtola, F. März, M. Müller,
   F. Musil, H. Neugebauer, J. Pisarek, C. Plett, P. Pracht, F. Pultar,
   J. Seibert, P. Shushkov, S. Spicher, M. Stahn, M. Steiner, T. Strunk,
   J. Stückrath, T. Rose, and J. Unsleber
   
 * started run on 2024/12/16 at 17:48:33.395     
   ID    Z sym.   atoms
    1    6 C      1-3, 5-12, 16-21, 23-43, 45
    2    7 N      4, 22, 44
    3   15 P      13
    4   16 S      14, 15
    5    1 H      46-84

           -------------------------------------------------
          |                Calculation Setup                |
           -------------------------------------------------

          program call               : xtb --gfn2 --opt extreme -P 8 --charge 1 molecule.xyz
          hostname                   : node20
          coordinate file            : molecule.xyz
          omp threads                :                     8


           -------------------------------------------------
          |                 G F N 2 - x T B                 |
           -------------------------------------------------

        Reference                      10.1021/acs.jctc.8b01176
      * Hamiltonian:
        H0-scaling (s, p, d)           1.850000    2.230000    2.230000
        zeta-weighting                 0.500000
      * Dispersion:
        s8                             2.700000
        a1                             0.520000
        a2                             5.000000
        s9                             5.000000
      * Repulsion:
        kExp                           1.500000    1.000000
        rExp                           1.000000
      * Coulomb:
        alpha                          2.000000
        third order                    shell-resolved
        anisotropic                    true
        a3                             3.000000
        a5                             4.000000
        cn-shift                       1.200000
        cn-exp                         4.000000
        max-rad                        5.000000


          ...................................................
          :                      SETUP                      :
          :.................................................:
          :  # basis functions                 237          :
          :  # atomic orbitals                 234          :
          :  # shells                          132          :
          :  # electrons                       226          :
          :  max. iterations                   250          :
          :  Hamiltonian                  GFN2-xTB          :
          :  restarted?                      false          :
          :  GBSA solvation                  false          :
          :  PC potential                    false          :
          :  electronic temp.          300.0000000     K    :
          :  accuracy                    1.0000000          :
          :  -> integral cutoff          0.2500000E+02      :
          :  -> integral neglect         0.1000000E-07      :
          :  -> SCF convergence          0.1000000E-05 Eh   :
          :  -> wf. convergence          0.1000000E-03 e    :
          :  Broyden damping             0.4000000          :
          :  net charge                          1          :
          :  unpaired electrons                  0          :
          ...................................................

 iter      E             dE          RMSdq      gap      omega  full diag
   1   -122.6253399 -0.122625E+03  0.432E+00    1.73       0.0  T
   2   -122.7827788 -0.157439E+00  0.263E+00    2.05       1.0  T
   3   -122.7516105  0.311683E-01  0.131E+00    1.92       1.0  T
   4   -122.7877405 -0.361300E-01  0.616E-01    1.62       1.0  T
   5   -122.8112136 -0.234731E-01  0.262E-01    1.74       1.0  T
   6   -122.8133906 -0.217702E-02  0.142E-01    1.71       1.0  T
   7   -122.8150972 -0.170661E-02  0.458E-02    1.73       1.0  T
   8   -122.8151358 -0.385952E-04  0.224E-02    1.73       1.0  T
   9   -122.8151422 -0.637733E-05  0.111E-02    1.73       1.0  T
  10   -122.8151434 -0.119299E-05  0.662E-03    1.73       1.6  T
  11   -122.8151443 -0.856916E-06  0.349E-03    1.73       3.1  T
  12   -122.8151445 -0.222928E-06  0.214E-03    1.73       5.1  T
  13   -122.8151445 -0.366694E-07  0.115E-03    1.73       9.5  T
  14   -122.8151445 -0.350868E-07  0.491E-04    1.73      22.2  T
  15   -122.8151445 -0.142667E-08  0.247E-04    1.73      44.1  T

   *** convergence criteria satisfied after 15 iterations ***

         #    Occupation            Energy/Eh            Energy/eV
      -------------------------------------------------------------
         1        2.0000           -0.8587689             -23.3683
       ...           ...                  ...                  ...
       107        2.0000           -0.4947110             -13.4618
       108        2.0000           -0.4937878             -13.4366
       109        2.0000           -0.4922437             -13.3946
       110        2.0000           -0.4832420             -13.1497
       111        2.0000           -0.4824635             -13.1285
       112        2.0000           -0.4663671             -12.6905
       113        2.0000           -0.4527031             -12.3187 (HOMO)
       114                         -0.3891798             -10.5901 (LUMO)
       115                         -0.3693215             -10.0497
       116                         -0.3564120              -9.6985
       117                         -0.3481625              -9.4740
       118                         -0.3357081              -9.1351
       ...                                ...                  ...
       234                          1.0940226              29.7699
      -------------------------------------------------------------
                  HL-Gap            0.0635233 Eh            1.7286 eV
             Fermi-level           -0.4209414 Eh          -11.4544 eV

 SCC (total)                   0 d,  0 h,  0 min,  2.314 sec
 SCC setup                      ...        0 min,  0.000 sec (  0.015%)
 Dispersion                     ...        0 min,  0.001 sec (  0.060%)
 classical contributions        ...        0 min,  0.000 sec (  0.005%)
 integral evaluation            ...        0 min,  0.006 sec (  0.276%)
 iterations                     ...        0 min,  2.174 sec ( 93.954%)
 molecular gradient             ...        0 min,  0.115 sec (  4.985%)
 printout                       ...        0 min,  0.016 sec (  0.704%)

         :::::::::::::::::::::::::::::::::::::::::::::::::::::
         ::                     SUMMARY                     ::
         :::::::::::::::::::::::::::::::::::::::::::::::::::::
         :: total energy            -120.887668846358 Eh    ::
         :: gradient norm              0.134175616356 Eh/a0 ::
         :: HOMO-LUMO gap              1.728556195740 eV    ::
         ::.................................................::
         :: SCC energy              -122.807918106741 Eh    ::
         :: -> isotropic ES            0.076647076986 Eh    ::
         :: -> anisotropic ES          0.002688718724 Eh    ::
         :: -> anisotropic XC          0.077591426202 Eh    ::
         :: -> dispersion             -0.134097536175 Eh    ::
         :: repulsion energy           1.920249260384 Eh    ::
         :: add. restraining           0.000000000000 Eh    ::
         :: total charge               1.000000000000 e     ::
         :::::::::::::::::::::::::::::::::::::::::::::::::::::

      ----------------------------------------------------------- 
     |                   =====================                   |
     |                        A N C O P T                        |
     |                   =====================                   |
     |               Approximate Normal Coordinate               |
     |                Rational Function Optimizer                |
      ----------------------------------------------------------- 
      ----------------------------------------------------------- 
     |                   =====================                   |
     |                        A N C O P T                        |
     |                   =====================                   |
     |               Approximate Normal Coordinate               |
     |                Rational Function Optimizer                |
      ----------------------------------------------------------- 

          ...................................................
          :                      SETUP                      :
          :.................................................:
          :   optimization level           extreme          :
          :   max. optcycles                  1680          :
          :   ANC micro-cycles                  20          :
          :   degrees of freedom               246          :
          :.................................................:
          :   RF solver                   davidson          :
          :   write xtbopt.log                true          :
          :   linear?                        false          :
          :   energy convergence         0.5000000E-07 Eh   :
          :   grad. convergence          0.5000000E-04 Eh/α :
          :   maxmium RF displ.          1.0000000          :
          :   Hlow (freq-cutoff)         0.1000000E-01      :
          :   Hmax (freq-cutoff)         5.0000000          :
          :   S6 in model hess.         20.0000000          :
          ...................................................

generating ANC from exact Hessian ...
Using Lindh-Hessian (1995)
 Shifting diagonal of input Hessian by    9.8958037447824457E-003
 Lowest  eigenvalues of input Hessian
    0.000000    0.000000    0.000000    0.000000    0.000000    0.000000
    0.010000    0.010078    0.010112    0.010185    0.010328    0.010394
    0.010533    0.010640    0.010815    0.011099    0.011228    0.011260
 Highest eigenvalues
    1.943979    1.960724    1.992996    2.029637    2.069790    2.073583


........................................................................
.............................. CYCLE    1 ..............................
........................................................................

 iter      E             dE          RMSdq      gap      omega  full diag
   1   -122.8151446 -0.122815E+03  0.111E-04    1.73       0.0  T
   2   -122.8151446 -0.761844E-10  0.701E-05    1.73     155.6  T
   3   -122.8151446 -0.912337E-11  0.489E-05    1.73     223.1  T
     SCC iter.                  ...        0 min,  0.322 sec
     gradient                   ...        0 min,  0.129 sec
 * total energy  :  -120.8876688 Eh     change       -0.2356529E-08 Eh
   gradient norm :     0.1341755 Eh/α   predicted     0.0000000E+00 (-100.00%)
   displ. norm   :     0.3996836 α      lambda       -0.2775688E-01
   maximum displ.:     0.1145807 α      in ANC's #55, #29, #83, ...

........................................................................
.............................. CYCLE    2 ..............................
........................................................................

 iter      E             dE          RMSdq      gap      omega  full diag
   1   -122.8949550 -0.122895E+03  0.260E-01    1.85       0.0  T
   2   -122.8950842 -0.129181E-03  0.136E-01    1.91       1.0  T
   3   -122.8950013  0.829373E-04  0.454E-02    1.95       1.0  T
   4   -122.8951025 -0.101224E-03  0.214E-02    1.95       1.0  T
   5   -122.8951184 -0.158810E-04  0.105E-02    1.95       1.0  T
   6   -122.8951241 -0.576517E-05  0.455E-03    1.95       2.4  T
   7   -122.8951248 -0.613511E-06  0.293E-03    1.95       3.7  T
   8   -122.8951249 -0.159727E-06  0.164E-03    1.95       6.7  T
   9   -122.8951250 -0.322775E-07  0.839E-04    1.95      13.0  T
  10   -122.8951250 -0.656753E-08  0.372E-04    1.95      29.3  T
     SCC iter.                  ...        0 min,  1.559 sec
     gradient                   ...        0 min,  0.156 sec
 * total energy  :  -120.9073146 Eh     change       -0.1964577E-01 Eh
   gradient norm :     0.0575442 Eh/α   predicted    -0.1612318E-01 ( -17.93%)
   displ. norm   :     0.4188065 α      lambda       -0.1029019E-01
   maximum displ.:     0.1560859 α      in ANC's #18, #19, #55, ...

........................................................................
.............................. CYCLE    3 ..............................
........................................................................

 iter      E             dE          RMSdq      gap      omega  full diag
   1   -122.9416186 -0.122942E+03  0.192E-01    2.10       0.0  T
   2   -122.9416672 -0.485624E-04  0.102E-01    2.13       1.0  T
   3   -122.9416292  0.379771E-04  0.305E-02    2.15       1.0  T
   4   -122.9416773 -0.480754E-04  0.119E-02    2.15       1.0  T
   5   -122.9416817 -0.442540E-05  0.610E-03    2.15       1.8  T
   6   -122.9416835 -0.171963E-05  0.265E-03    2.15       4.1  T
   7   -122.9416836 -0.181515E-06  0.162E-03    2.15       6.8  T
   8   -122.9416837 -0.623020E-07  0.793E-04    2.15      13.8  T
   9   -122.9416837 -0.855759E-08  0.479E-04    2.15      22.8  T
     SCC iter.                  ...        0 min,  1.377 sec
     gradient                   ...        0 min,  0.120 sec
 * total energy  :  -120.9137014 Eh     change       -0.6386805E-02 Eh
   gradient norm :     0.0138638 Eh/α   predicted    -0.6047540E-02 (  -5.31%)
   displ. norm   :     0.3895951 α      lambda       -0.2518550E-02
   maximum displ.:     0.2054940 α      in ANC's #18, #19, #12, ...

........................................................................
.............................. CYCLE    4 ..............................
........................................................................

 iter      E             dE          RMSdq      gap      omega  full diag
   1   -122.9469263 -0.122947E+03  0.111E-01    2.19       0.0  T
   2   -122.9469450 -0.186807E-04  0.564E-02    2.20       1.0  T
   3   -122.9469391  0.592238E-05  0.167E-02    2.21       1.0  T
   4   -122.9469460 -0.692323E-05  0.815E-03    2.21       1.3  T
   5   -122.9469484 -0.237344E-05  0.356E-03    2.21       3.1  T
   6   -122.9469491 -0.727643E-06  0.157E-03    2.21       6.9  T
   7   -122.9469492 -0.131777E-06  0.577E-04    2.21      18.9  T
   8   -122.9469492 -0.128195E-07  0.277E-04    2.21      39.4  T
     SCC iter.                  ...        0 min,  1.314 sec
     gradient                   ...        0 min,  0.116 sec
 * total energy  :  -120.9155751 Eh     change       -0.1873685E-02 Eh
   gradient norm :     0.0122838 Eh/α   predicted    -0.1450444E-02 ( -22.59%)
   displ. norm   :     0.4849955 α      lambda       -0.1913911E-02
   maximum displ.:     0.2807609 α      in ANC's #18, #19, #12, ...

........................................................................
.............................. CYCLE    5 ..............................
........................................................................

 iter      E             dE          RMSdq      gap      omega  full diag
   1   -122.9488410 -0.122949E+03  0.849E-02    2.23       0.0  T
   2   -122.9488552 -0.142445E-04  0.492E-02    2.23       1.0  T
   3   -122.9488486  0.661801E-05  0.174E-02    2.23       1.0  T
   4   -122.9488584 -0.975248E-05  0.511E-03    2.23       2.1  T
   5   -122.9488585 -0.165160E-06  0.301E-03    2.23       3.6  T
   6   -122.9488589 -0.363830E-06  0.116E-03    2.23       9.4  T
   7   -122.9488589 -0.106513E-07  0.693E-04    2.23      15.7  T
   8   -122.9488589 -0.131430E-07  0.337E-04    2.23      32.4  T
     SCC iter.                  ...        0 min,  1.161 sec
     gradient                   ...        0 min,  0.116 sec
 * total energy  :  -120.9168939 Eh     change       -0.1318776E-02 Eh
   gradient norm :     0.0096285 Eh/α   predicted    -0.1182054E-02 ( -10.37%)
   displ. norm   :     0.4085177 α      lambda       -0.9700604E-03
   maximum displ.:     0.2345540 α      in ANC's #18, #19, #12, ...

........................................................................
.............................. CYCLE    6 ..............................
........................................................................

 iter      E             dE          RMSdq      gap      omega  full diag
   1   -122.9485425 -0.122949E+03  0.977E-02    2.22       0.0  T
   2   -122.9485558 -0.132758E-04  0.461E-02    2.22       1.0  T
   3   -122.9485562 -0.438474E-06  0.119E-02    2.22       1.0  T
   4   -122.9485563 -0.801715E-07  0.683E-03    2.22       1.6  T
   5   -122.9485576 -0.129055E-05  0.217E-03    2.22       5.0  T
   6   -122.9485577 -0.159726E-06  0.115E-03    2.22       9.5  T
   7   -122.9485578 -0.999898E-07  0.423E-04    2.22      25.8  T
   8   -122.9485579 -0.343357E-08  0.237E-04    2.22      46.1  T
     SCC iter.                  ...        0 min,  1.207 sec
     gradient                   ...        0 min,  0.116 sec
 * total energy  :  -120.9174947 Eh     change       -0.6008212E-03 Eh
   gradient norm :     0.0064721 Eh/α   predicted    -0.5659779E-03 (  -5.80%)
   displ. norm   :     0.2905092 α      lambda       -0.4732938E-03
   maximum displ.:     0.1470336 α      in ANC's #18, #19, #12, ...

........................................................................
.............................. CYCLE    7 ..............................
........................................................................

 iter      E             dE          RMSdq      gap      omega  full diag
   1   -122.9510372 -0.122951E+03  0.588E-02    2.23       0.0  T
   2   -122.9510424 -0.515750E-05  0.332E-02    2.23       1.0  T
   3   -122.9510410  0.141050E-05  0.801E-03    2.22       1.4  T
   4   -122.9510427 -0.172132E-05  0.342E-03    2.22       3.2  T
   5   -122.9510431 -0.407069E-06  0.191E-03    2.22       5.7  T
   6   -122.9510432 -0.906967E-07  0.115E-03    2.22       9.5  T
   7   -122.9510432 -0.484823E-07  0.566E-04    2.22      19.3  T
   8   -122.9510432 -0.453883E-08  0.330E-04    2.22      33.0  T
     SCC iter.                  ...        0 min,  1.351 sec
     gradient                   ...        0 min,  0.116 sec
 * total energy  :  -120.9177833 Eh     change       -0.2885995E-03 Eh
   gradient norm :     0.0060596 Eh/α   predicted    -0.2566386E-03 ( -11.07%)
   displ. norm   :     0.1882609 α      lambda       -0.2237477E-03
   maximum displ.:     0.0839394 α      in ANC's #4, #18, #2, ...

........................................................................
.............................. CYCLE    8 ..............................
........................................................................

 iter      E             dE          RMSdq      gap      omega  full diag
   1   -122.9532543 -0.122953E+03  0.398E-02    2.23       0.0  T
   2   -122.9532554 -0.116571E-05  0.219E-02    2.23       1.0  T
   3   -122.9532544  0.107935E-05  0.571E-03    2.23       1.9  T
   4   -122.9532557 -0.132968E-05  0.217E-03    2.23       5.0  T
   5   -122.9532558 -0.141232E-06  0.828E-04    2.23      13.2  T
   6   -122.9532559 -0.237239E-07  0.364E-04    2.23      30.0  T
     SCC iter.                  ...        0 min,  0.827 sec
     gradient                   ...        0 min,  0.116 sec
 * total energy  :  -120.9179421 Eh     change       -0.1588103E-03 Eh
   gradient norm :     0.0044736 Eh/α   predicted    -0.1158400E-03 ( -27.06%)
   displ. norm   :     0.1998695 α      lambda       -0.1721431E-03
   maximum displ.:     0.1104788 α      in ANC's #4, #2, #6, ...

........................................................................
.............................. CYCLE    9 ..............................
........................................................................

 iter      E             dE          RMSdq      gap      omega  full diag
   1   -122.9538178 -0.122954E+03  0.410E-02    2.22       0.0  T
   2   -122.9538197 -0.188759E-05  0.222E-02    2.22       1.0  T
   3   -122.9538189  0.817825E-06  0.607E-03    2.22       1.8  T
   4   -122.9538199 -0.101206E-05  0.278E-03    2.22       3.9  T
   5   -122.9538201 -0.212042E-06  0.103E-03    2.22      10.6  T
   6   -122.9538202 -0.718606E-07  0.374E-04    2.22      29.2  T
   7   -122.9538202 -0.406664E-08  0.235E-04    2.22      46.4  T
     SCC iter.                  ...        0 min,  1.121 sec
     gradient                   ...        0 min,  0.120 sec
 * total energy  :  -120.9180625 Eh     change       -0.1203541E-03 Eh
   gradient norm :     0.0028027 Eh/α   predicted    -0.8951156E-04 ( -25.63%)
   displ. norm   :     0.1836800 α      lambda       -0.1120697E-03
   maximum displ.:     0.1104434 α      in ANC's #4, #2, #6, ...

........................................................................
.............................. CYCLE   10 ..............................
........................................................................

 iter      E             dE          RMSdq      gap      omega  full diag
   1   -122.9539510 -0.122954E+03  0.290E-02    2.23       0.0  T
   2   -122.9539516 -0.623255E-06  0.162E-02    2.23       1.0  T
   3   -122.9539512  0.377804E-06  0.391E-03    2.23       2.8  T
   4   -122.9539517 -0.451314E-06  0.171E-03    2.23       6.4  T
   5   -122.9539518 -0.940035E-07  0.626E-04    2.23      17.4  T
   6   -122.9539518 -0.167872E-07  0.286E-04    2.23      38.2  T
     SCC iter.                  ...        0 min,  0.803 sec
     gradient                   ...        0 min,  0.145 sec
 * total energy  :  -120.9181496 Eh     change       -0.8714962E-04 Eh
   gradient norm :     0.0027706 Eh/α   predicted    -0.5792959E-04 ( -33.53%)
   displ. norm   :     0.2107011 α      lambda       -0.1137936E-03
   maximum displ.:     0.1284596 α      in ANC's #4, #2, #6, ...

........................................................................
.............................. CYCLE   11 ..............................
........................................................................

 iter      E             dE          RMSdq      gap      omega  full diag
   1   -122.9533193 -0.122953E+03  0.303E-02    2.23       0.0  T
   2   -122.9533199 -0.565825E-06  0.167E-02    2.23       1.0  T
   3   -122.9533196  0.294813E-06  0.355E-03    2.23       3.1  T
   4   -122.9533197 -0.133693E-06  0.211E-03    2.23       5.2  T
   5   -122.9533200 -0.294094E-06  0.564E-04    2.23      19.3  T
   6   -122.9533201 -0.246436E-07  0.226E-04    2.23      48.3  T
     SCC iter.                  ...        0 min,  0.979 sec
     gradient                   ...        0 min,  0.116 sec
 * total energy  :  -120.9182452 Eh     change       -0.9555630E-04 Eh
   gradient norm :     0.0035613 Eh/α   predicted    -0.5942451E-04 ( -37.81%)
   displ. norm   :     0.2824584 α      lambda       -0.1434804E-03
   maximum displ.:     0.1699988 α      in ANC's #4, #6, #2, ...

........................................................................
.............................. CYCLE   12 ..............................
........................................................................

 iter      E             dE          RMSdq      gap      omega  full diag
   1   -122.9526549 -0.122953E+03  0.403E-02    2.24       0.0  T
   2   -122.9526558 -0.884919E-06  0.220E-02    2.24       1.0  T
   3   -122.9526554  0.378001E-06  0.458E-03    2.24       2.4  T
   4   -122.9526554  0.496021E-08  0.293E-03    2.24       3.7  T
   5   -122.9526560 -0.588474E-06  0.664E-04    2.24      16.4  T
   6   -122.9526561 -0.358250E-07  0.284E-04    2.24      38.4  T
     SCC iter.                  ...        0 min,  0.916 sec
     gradient                   ...        0 min,  0.150 sec
 * total energy  :  -120.9183679 Eh     change       -0.1227235E-03 Eh
   gradient norm :     0.0040907 Eh/α   predicted    -0.7746657E-04 ( -36.88%)
   displ. norm   :     0.3742144 α      lambda       -0.1750302E-03
   maximum displ.:     0.2240524 α      in ANC's #4, #6, #2, ...

........................................................................
.............................. CYCLE   13 ..............................
........................................................................

 iter      E             dE          RMSdq      gap      omega  full diag
   1   -122.9518393 -0.122952E+03  0.528E-02    2.24       0.0  T
   2   -122.9518407 -0.143728E-05  0.291E-02    2.25       1.0  T
   3   -122.9518395  0.119385E-05  0.629E-03    2.25       1.7  T
   4   -122.9518402 -0.695641E-06  0.377E-03    2.25       2.9  T
   5   -122.9518411 -0.865165E-06  0.104E-03    2.25      10.5  T
   6   -122.9518412 -0.931646E-07  0.428E-04    2.25      25.5  T
   7   -122.9518412 -0.736185E-08  0.240E-04    2.25      45.5  T
     SCC iter.                  ...        0 min,  0.901 sec
     gradient                   ...        0 min,  0.115 sec
 * total energy  :  -120.9185180 Eh     change       -0.1501356E-03 Eh
   gradient norm :     0.0038849 Eh/α   predicted    -0.9977075E-04 ( -33.55%)
   displ. norm   :     0.4478502 α      lambda       -0.1930655E-03
   maximum displ.:     0.2685535 α      in ANC's #4, #6, #2, ...

........................................................................
.............................. CYCLE   14 ..............................
........................................................................

 iter      E             dE          RMSdq      gap      omega  full diag
   1   -122.9513876 -0.122951E+03  0.629E-02    2.26       0.0  T
   2   -122.9513894 -0.180446E-05  0.349E-02    2.26       1.0  T
   3   -122.9513872  0.216273E-05  0.755E-03    2.26       1.4  T
   4   -122.9513888 -0.161695E-05  0.430E-03    2.26       2.5  T
   5   -122.9513899 -0.106928E-05  0.123E-03    2.26       8.9  T
   6   -122.9513900 -0.136394E-06  0.482E-04    2.26      22.6  T
   7   -122.9513900 -0.836157E-08  0.275E-04    2.26      39.7  T
     SCC iter.                  ...        0 min,  1.055 sec
     gradient                   ...        0 min,  0.115 sec
 * total energy  :  -120.9186830 Eh     change       -0.1649351E-03 Eh
   gradient norm :     0.0033757 Eh/α   predicted    -0.1158955E-03 ( -29.73%)
   displ. norm   :     0.4920064 α      lambda       -0.1954171E-03
   maximum displ.:     0.2968693 α      in ANC's #4, #2, #6, ...

........................................................................
.............................. CYCLE   15 ..............................
........................................................................

 iter      E             dE          RMSdq      gap      omega  full diag
   1   -122.9515975 -0.122952E+03  0.680E-02    2.27       0.0  T
   2   -122.9515994 -0.188935E-05  0.380E-02    2.28       1.0  T
   3   -122.9515963  0.311284E-05  0.818E-03    2.28       1.3  T
   4   -122.9515990 -0.270666E-05  0.434E-03    2.28       2.5  T
   5   -122.9516000 -0.103039E-05  0.132E-03    2.28       8.2  T
   6   -122.9516002 -0.161506E-06  0.490E-04    2.28      22.3  T
   7   -122.9516002 -0.701733E-08  0.284E-04    2.28      38.4  T
     SCC iter.                  ...        0 min,  1.117 sec
     gradient                   ...        0 min,  0.115 sec
 * total energy  :  -120.9188475 Eh     change       -0.1644962E-03 Eh
   gradient norm :     0.0031370 Eh/α   predicted    -0.1213628E-03 ( -26.22%)
   displ. norm   :     0.5102537 α      lambda       -0.1805774E-03
   maximum displ.:     0.3098351 α      in ANC's #4, #2, #6, ...

........................................................................
.............................. CYCLE   16 ..............................
........................................................................

 iter      E             dE          RMSdq      gap      omega  full diag
   1   -122.9524720 -0.122952E+03  0.690E-02    2.29       0.0  T
   2   -122.9524737 -0.177089E-05  0.387E-02    2.29       1.0  T
   3   -122.9524704  0.338708E-05  0.814E-03    2.29       1.3  T
   4   -122.9524735 -0.311733E-05  0.414E-03    2.30       2.6  T
   5   -122.9524744 -0.904083E-06  0.130E-03    2.29       8.4  T
   6   -122.9524745 -0.158486E-06  0.446E-04    2.29      24.5  T
   7   -122.9524745 -0.462036E-08  0.256E-04    2.29      42.6  T
     SCC iter.                  ...        0 min,  0.983 sec
     gradient                   ...        0 min,  0.116 sec
 * total energy  :  -120.9189958 Eh     change       -0.1483080E-03 Eh
   gradient norm :     0.0030790 Eh/α   predicted    -0.1137974E-03 ( -23.27%)
   displ. norm   :     0.5007404 α      lambda       -0.1472401E-03
   maximum displ.:     0.3049781 α      in ANC's #4, #2, #6, ...

........................................................................
.............................. CYCLE   17 ..............................
........................................................................

 iter      E             dE          RMSdq      gap      omega  full diag
   1   -122.9534037 -0.122953E+03  0.660E-02    2.31       0.0  T
   2   -122.9534053 -0.160067E-05  0.371E-02    2.31       1.0  T
   3   -122.9534022  0.306920E-05  0.772E-03    2.31       1.4  T
   4   -122.9534051 -0.288905E-05  0.384E-03    2.31       2.8  T
   5   -122.9534059 -0.755114E-06  0.127E-03    2.31       8.6  T
   6   -122.9534060 -0.149895E-06  0.404E-04    2.31      27.0  T
   7   -122.9534060 -0.331076E-08  0.229E-04    2.31      47.6  T
     SCC iter.                  ...        0 min,  0.993 sec
     gradient                   ...        0 min,  0.181 sec
 * total energy  :  -120.9191135 Eh     change       -0.1177637E-03 Eh
   gradient norm :     0.0027527 Eh/α   predicted    -0.9208173E-04 ( -21.81%)
   displ. norm   :     0.4502537 α      lambda       -0.1063812E-03
   maximum displ.:     0.2735682 α      in ANC's #4, #2, #6, ...

........................................................................
.............................. CYCLE   18 ..............................
........................................................................

 iter      E             dE          RMSdq      gap      omega  full diag
   1   -122.9541714 -0.122954E+03  0.578E-02    2.32       0.0  T
   2   -122.9541726 -0.124024E-05  0.325E-02    2.32       1.0  T
   3   -122.9541703  0.229166E-05  0.672E-03    2.32       1.6  T
   4   -122.9541725 -0.221318E-05  0.326E-03    2.32       3.3  T
   5   -122.9541731 -0.512784E-06  0.116E-03    2.32       9.4  T
   6   -122.9541732 -0.125047E-06  0.344E-04    2.32      31.8  T
   7   -122.9541732 -0.250543E-08  0.194E-04    2.32      56.2  T
     SCC iter.                  ...        0 min,  1.011 sec
     gradient                   ...        0 min,  0.119 sec
 * total energy  :  -120.9191974 Eh     change       -0.8389383E-04 Eh
   gradient norm :     0.0021300 Eh/α   predicted    -0.6397713E-04 ( -23.74%)
   displ. norm   :     0.3894749 α      lambda       -0.7568752E-04
   maximum displ.:     0.2335769 α      in ANC's #4, #2, #6, ...

........................................................................
.............................. CYCLE   19 ..............................
........................................................................

 iter      E             dE          RMSdq      gap      omega  full diag
   1   -122.9546526 -0.122955E+03  0.487E-02    2.33       0.0  T
   2   -122.9546535 -0.909145E-06  0.275E-02    2.33       1.0  T
   3   -122.9546518  0.172774E-05  0.578E-03    2.33       1.9  T
   4   -122.9546535 -0.175014E-05  0.262E-03    2.33       4.2  T
   5   -122.9546538 -0.292382E-06  0.105E-03    2.33      10.4  T
   6   -122.9546539 -0.101674E-06  0.289E-04    2.33      37.7  T
   7   -122.9546539 -0.229002E-08  0.163E-04    2.33      67.0  T
     SCC iter.                  ...        0 min,  1.183 sec
     gradient                   ...        0 min,  0.121 sec
 * total energy  :  -120.9192568 Eh     change       -0.5938567E-04 Eh
   gradient norm :     0.0016277 Eh/α   predicted    -0.4358844E-04 ( -26.60%)
   displ. norm   :     0.4780324 α      lambda       -0.5486895E-04
   maximum displ.:     0.2761187 α      in ANC's #4, #2, #6, ...

........................................................................
.............................. CYCLE   20 ..............................
........................................................................

 iter      E             dE          RMSdq      gap      omega  full diag
   1   -122.9550205 -0.122955E+03  0.587E-02    2.34       0.0  T
   2   -122.9550218 -0.130722E-05  0.333E-02    2.34       1.0  T
   3   -122.9550189  0.292460E-05  0.715E-03    2.34       1.5  T
   4   -122.9550220 -0.312618E-05  0.287E-03    2.34       3.8  T
   5   -122.9550223 -0.280292E-06  0.133E-03    2.34       8.2  T
   6   -122.9550225 -0.159539E-06  0.343E-04    2.34      31.8  T
   7   -122.9550225 -0.471701E-08  0.180E-04    2.34      60.6  T
     SCC iter.                  ...        0 min,  1.190 sec
     gradient                   ...        0 min,  0.130 sec
 * total energy  :  -120.9193126 Eh     change       -0.5576285E-04 Eh
   gradient norm :     0.0017275 Eh/α   predicted    -0.3022161E-04 ( -45.80%)
   displ. norm   :     0.2173094 α      lambda       -0.2479853E-04
   maximum displ.:     0.1172673 α      in ANC's #2, #4, #6, ...
 * RMSD in coord.:     0.6006107 α      energy gain  -0.3164374E-01 Eh

generating ANC from exact Hessian ...
Using Lindh-Hessian (1995)
 Shifting diagonal of input Hessian by    9.9093020856666301E-003
 Lowest  eigenvalues of input Hessian
    0.000000    0.000000    0.000000    0.000000    0.000000    0.000000
    0.010000    0.010083    0.010140    0.010271    0.010366    0.010413
    0.010543    0.010563    0.010809    0.010995    0.011034    0.011168
 Highest eigenvalues
    2.016008    2.023487    2.026294    2.074283    2.115222    2.125593


........................................................................
.............................. CYCLE   21 ..............................
........................................................................

 iter      E             dE          RMSdq      gap      omega  full diag
   1   -122.9553785 -0.122955E+03  0.267E-02    2.34       0.0  T
   2   -122.9553788 -0.253895E-06  0.153E-02    2.34       1.0  T
   3   -122.9553779  0.818070E-06  0.339E-03    2.34       3.2  T
   4   -122.9553788 -0.895264E-06  0.111E-03    2.34       9.8  T
   5   -122.9553789 -0.415498E-07  0.579E-04    2.34      18.9  T
   6   -122.9553789 -0.254739E-07  0.178E-04    2.34      61.4  T
     SCC iter.                  ...        0 min,  1.136 sec
     gradient                   ...        0 min,  0.116 sec
 * total energy  :  -120.9193417 Eh     change       -0.2916178E-04 Eh
   gradient norm :     0.0013882 Eh/α   predicted     0.0000000E+00 (-100.00%)
   displ. norm   :     0.0395319 α      lambda       -0.1055302E-04
   maximum displ.:     0.0180702 α      in ANC's #1, #2, #4, ...

........................................................................
.............................. CYCLE   22 ..............................
........................................................................

 iter      E             dE          RMSdq      gap      omega  full diag
   1   -122.9550732 -0.122955E+03  0.771E-03    2.34       0.0  T
   2   -122.9550733 -0.650337E-07  0.418E-03    2.34       2.6  T
   3   -122.9550733  0.126070E-07  0.931E-04    2.34      11.7  T
   4   -122.9550733 -0.731828E-08  0.544E-04    2.34      20.1  T
     SCC iter.                  ...        0 min,  0.758 sec
     gradient                   ...        0 min,  0.121 sec
 * total energy  :  -120.9193552 Eh     change       -0.1349226E-04 Eh
   gradient norm :     0.0006067 Eh/α   predicted    -0.5449155E-05 ( -59.61%)
   displ. norm   :     0.1507956 α      lambda       -0.2989398E-04
   maximum displ.:     0.0659658 α      in ANC's #1, #2, #4, ...

........................................................................
.............................. CYCLE   23 ..............................
........................................................................

 iter      E             dE          RMSdq      gap      omega  full diag
   1   -122.9547028 -0.122955E+03  0.244E-02    2.34       0.0  T
   2   -122.9547033 -0.513628E-06  0.136E-02    2.34       1.0  T
   3   -122.9547029  0.427766E-06  0.344E-03    2.34       3.2  T
   4   -122.9547032 -0.279141E-06  0.204E-03    2.34       5.4  T
   5   -122.9547034 -0.262192E-06  0.734E-04    2.34      14.9  T
   6   -122.9547035 -0.349835E-07  0.268E-04    2.34      40.8  T
     SCC iter.                  ...        0 min,  1.386 sec
     gradient                   ...        0 min,  0.113 sec
 * total energy  :  -120.9193823 Eh     change       -0.2703511E-04 Eh
   gradient norm :     0.0018603 Eh/α   predicted    -0.1509991E-04 ( -44.15%)
   displ. norm   :     0.1573121 α      lambda       -0.2311819E-04
   maximum displ.:     0.0696402 α      in ANC's #1, #2, #9, ...

........................................................................
.............................. CYCLE   24 ..............................
........................................................................

 iter      E             dE          RMSdq      gap      omega  full diag
   1   -122.9549901 -0.122955E+03  0.303E-02    2.34       0.0  T
   2   -122.9549914 -0.132076E-05  0.158E-02    2.34       1.0  T
   3   -122.9549913  0.740938E-07  0.414E-03    2.34       2.6  T
   4   -122.9549914 -0.731326E-07  0.195E-03    2.34       5.6  T
   5   -122.9549916 -0.184504E-06  0.808E-04    2.34      13.5  T
   6   -122.9549916 -0.260059E-07  0.357E-04    2.34      30.6  T
     SCC iter.                  ...        0 min,  1.000 sec
     gradient                   ...        0 min,  0.123 sec
 * total energy  :  -120.9193962 Eh     change       -0.1396849E-04 Eh
   gradient norm :     0.0024802 Eh/α   predicted    -0.1168703E-04 ( -16.33%)
   displ. norm   :     0.0809318 α      lambda       -0.2134099E-04
   maximum displ.:     0.0354943 α      in ANC's #1, #9, #2, ...

........................................................................
.............................. CYCLE   25 ..............................
........................................................................

 iter      E             dE          RMSdq      gap      omega  full diag
   1   -122.9551213 -0.122955E+03  0.153E-02    2.34       0.0  T
   2   -122.9551216 -0.326584E-06  0.780E-03    2.34       1.4  T
   3   -122.9551215  0.627300E-07  0.232E-03    2.34       4.7  T
   4   -122.9551216 -0.797756E-07  0.116E-03    2.34       9.4  T
   5   -122.9551216 -0.511581E-07  0.290E-04    2.34      37.6  T
   6   -122.9551216 -0.225836E-08  0.132E-04    2.34      82.4  T
     SCC iter.                  ...        0 min,  1.192 sec
     gradient                   ...        0 min,  0.121 sec
 * total energy  :  -120.9194120 Eh     change       -0.1578478E-04 Eh
   gradient norm :     0.0018620 Eh/α   predicted    -0.1074062E-04 ( -31.96%)
   displ. norm   :     0.2367415 α      lambda       -0.3469325E-04
   maximum displ.:     0.1040000 α      in ANC's #1, #9, #12, ...

........................................................................
.............................. CYCLE   26 ..............................
........................................................................

 iter      E             dE          RMSdq      gap      omega  full diag
   1   -122.9551587 -0.122955E+03  0.446E-02    2.34       0.0  T
   2   -122.9551608 -0.212758E-05  0.231E-02    2.34       1.0  T
   3   -122.9551599  0.930092E-06  0.697E-03    2.34       1.6  T
   4   -122.9551609 -0.106884E-05  0.332E-03    2.34       3.3  T
   5   -122.9551612 -0.310265E-06  0.115E-03    2.34       9.5  T
   6   -122.9551613 -0.937755E-07  0.486E-04    2.34      22.5  T
   7   -122.9551613 -0.171377E-07  0.189E-04    2.34      57.6  T
     SCC iter.                  ...        0 min,  1.475 sec
     gradient                   ...        0 min,  0.120 sec
 * total energy  :  -120.9194376 Eh     change       -0.2553829E-04 Eh
   gradient norm :     0.0014047 Eh/α   predicted    -0.1777990E-04 ( -30.38%)
   displ. norm   :     0.1019957 α      lambda       -0.1415790E-04
   maximum displ.:     0.0459028 α      in ANC's #1, #9, #2, ...

........................................................................
.............................. CYCLE   27 ..............................
........................................................................

 iter      E             dE          RMSdq      gap      omega  full diag
   1   -122.9553427 -0.122955E+03  0.164E-02    2.34       0.0  T
   2   -122.9553429 -0.244301E-06  0.921E-03    2.34       1.2  T
   3   -122.9553426  0.284875E-06  0.255E-03    2.34       4.3  T
   4   -122.9553430 -0.335834E-06  0.923E-04    2.34      11.8  T
   5   -122.9553430 -0.261068E-07  0.399E-04    2.34      27.3  T
     SCC iter.                  ...        0 min,  0.766 sec
     gradient                   ...        0 min,  0.118 sec
 * total energy  :  -120.9194522 Eh     change       -0.1463362E-04 Eh
   gradient norm :     0.0011447 Eh/α   predicted    -0.7115184E-05 ( -51.38%)
   displ. norm   :     0.1287481 α      lambda       -0.1506297E-04
   maximum displ.:     0.0580055 α      in ANC's #1, #9, #2, ...

........................................................................
.............................. CYCLE   28 ..............................
........................................................................

 iter      E             dE          RMSdq      gap      omega  full diag
   1   -122.9555792 -0.122956E+03  0.190E-02    2.34       0.0  T
   2   -122.9555795 -0.345254E-06  0.108E-02    2.34       1.0  T
   3   -122.9555792  0.357595E-06  0.264E-03    2.34       4.1  T
   4   -122.9555796 -0.397296E-06  0.971E-04    2.34      11.2  T
   5   -122.9555796 -0.556034E-07  0.350E-04    2.34      31.1  T
     SCC iter.                  ...        0 min,  0.847 sec
     gradient                   ...        0 min,  0.120 sec
 * total energy  :  -120.9194664 Eh     change       -0.1419054E-04 Eh
   gradient norm :     0.0010174 Eh/α   predicted    -0.7590416E-05 ( -46.51%)
   displ. norm   :     0.1279811 α      lambda       -0.8253840E-05
   maximum displ.:     0.0623164 α      in ANC's #1, #2, #9, ...

........................................................................
.............................. CYCLE   29 ..............................
........................................................................

 iter      E             dE          RMSdq      gap      omega  full diag
   1   -122.9554146 -0.122955E+03  0.185E-02    2.33       0.0  T
   2   -122.9554148 -0.168069E-06  0.106E-02    2.33       1.0  T
   3   -122.9554144  0.379465E-06  0.245E-03    2.33       4.5  T
   4   -122.9554148 -0.446333E-06  0.779E-04    2.33      14.0  T
   5   -122.9554149 -0.185901E-07  0.168E-04    2.33      64.8  T
     SCC iter.                  ...        0 min,  0.766 sec
     gradient                   ...        0 min,  0.134 sec
 * total energy  :  -120.9194761 Eh     change       -0.9752432E-05 Eh
   gradient norm :     0.0007804 Eh/α   predicted    -0.4159259E-05 ( -57.35%)
   displ. norm   :     0.1570327 α      lambda       -0.1106627E-04
   maximum displ.:     0.0793717 α      in ANC's #1, #6, #5, ...

........................................................................
.............................. CYCLE   30 ..............................
........................................................................

 iter      E             dE          RMSdq      gap      omega  full diag
   1   -122.9555499 -0.122956E+03  0.226E-02    2.34       0.0  T
   2   -122.9555502 -0.216920E-06  0.130E-02    2.34       1.0  T
   3   -122.9555496  0.527531E-06  0.272E-03    2.34       4.0  T
   4   -122.9555502 -0.588537E-06  0.978E-04    2.34      11.2  T
   5   -122.9555503 -0.324575E-07  0.438E-04    2.34      24.9  T
     SCC iter.                  ...        0 min,  0.999 sec
     gradient                   ...        0 min,  0.178 sec
 * total energy  :  -120.9194887 Eh     change       -0.1256762E-04 Eh
   gradient norm :     0.0005922 Eh/α   predicted    -0.5598503E-05 ( -55.45%)
   displ. norm   :     0.1471681 α      lambda       -0.9483298E-05
   maximum displ.:     0.0781857 α      in ANC's #1, #6, #5, ...

........................................................................
.............................. CYCLE   31 ..............................
........................................................................

 iter      E             dE          RMSdq      gap      omega  full diag
   1   -122.9554192 -0.122955E+03  0.206E-02    2.34       0.0  T
   2   -122.9554193 -0.154565E-06  0.119E-02    2.34       1.0  T
   3   -122.9554189  0.381610E-06  0.223E-03    2.34       4.9  T
   4   -122.9554193 -0.423917E-06  0.805E-04    2.34      13.6  T
   5   -122.9554194 -0.233713E-07  0.397E-04    2.34      27.5  T
     SCC iter.                  ...        0 min,  0.671 sec
     gradient                   ...        0 min,  0.140 sec
 * total energy  :  -120.9195001 Eh     change       -0.1135305E-04 Eh
   gradient norm :     0.0008243 Eh/α   predicted    -0.4789635E-05 ( -57.81%)
   displ. norm   :     0.1376277 α      lambda       -0.9757990E-05
   maximum displ.:     0.0736473 α      in ANC's #1, #6, #5, ...

........................................................................
.............................. CYCLE   32 ..............................
........................................................................

 iter      E             dE          RMSdq      gap      omega  full diag
   1   -122.9554758 -0.122955E+03  0.189E-02    2.34       0.0  T
   2   -122.9554759 -0.111877E-06  0.109E-02    2.34       1.0  T
   3   -122.9554757  0.270283E-06  0.194E-03    2.34       5.6  T
   4   -122.9554760 -0.293169E-06  0.754E-04    2.34      14.5  T
   5   -122.9554760 -0.234490E-07  0.358E-04    2.34      30.4  T
     SCC iter.                  ...        0 min,  1.010 sec
     gradient                   ...        0 min,  0.122 sec
 * total energy  :  -120.9195124 Eh     change       -0.1230866E-04 Eh
   gradient norm :     0.0009131 Eh/α   predicted    -0.4923798E-05 ( -60.00%)
   displ. norm   :     0.1865552 α      lambda       -0.1285331E-04
   maximum displ.:     0.1000129 α      in ANC's #1, #6, #5, ...

........................................................................
.............................. CYCLE   33 ..............................
........................................................................

 iter      E             dE          RMSdq      gap      omega  full diag
   1   -122.9552690 -0.122955E+03  0.244E-02    2.34       0.0  T
   2   -122.9552692 -0.185691E-06  0.141E-02    2.34       1.0  T
   3   -122.9552687  0.459615E-06  0.259E-03    2.34       4.2  T
   4   -122.9552692 -0.487968E-06  0.104E-03    2.34      10.5  T
   5   -122.9552693 -0.474802E-07  0.478E-04    2.34      22.8  T
   6   -122.9552693 -0.199608E-07  0.119E-04    2.34      91.7  T
     SCC iter.                  ...        0 min,  1.015 sec
     gradient                   ...        0 min,  0.117 sec
 * total energy  :  -120.9195283 Eh     change       -0.1595352E-04 Eh
   gradient norm :     0.0008500 Eh/α   predicted    -0.6529124E-05 ( -59.07%)
   displ. norm   :     0.2237874 α      lambda       -0.1375584E-04
   maximum displ.:     0.1204439 α      in ANC's #1, #6, #5, ...

........................................................................
.............................. CYCLE   34 ..............................
........................................................................

 iter      E             dE          RMSdq      gap      omega  full diag
   1   -122.9551288 -0.122955E+03  0.283E-02    2.35       0.0  T
   2   -122.9551291 -0.267779E-06  0.163E-02    2.35       1.0  T
   3   -122.9551285  0.638467E-06  0.314E-03    2.35       3.5  T
   4   -122.9551291 -0.673352E-06  0.126E-03    2.35       8.7  T
   5   -122.9551292 -0.680763E-07  0.588E-04    2.35      18.6  T
   6   -122.9551292 -0.301836E-07  0.154E-04    2.35      70.7  T
     SCC iter.                  ...        0 min,  1.264 sec
     gradient                   ...        0 min,  0.124 sec
 * total energy  :  -120.9195449 Eh     change       -0.1656530E-04 Eh
   gradient norm :     0.0007097 Eh/α   predicted    -0.7032904E-05 ( -57.54%)
   displ. norm   :     0.2275739 α      lambda       -0.1249973E-04
   maximum displ.:     0.1237381 α      in ANC's #1, #6, #5, ...

........................................................................
.............................. CYCLE   35 ..............................
........................................................................

 iter      E             dE          RMSdq      gap      omega  full diag
   1   -122.9552019 -0.122955E+03  0.275E-02    2.35       0.0  T
   2   -122.9552021 -0.234841E-06  0.160E-02    2.35       1.0  T
   3   -122.9552014  0.690292E-06  0.296E-03    2.35       3.7  T
   4   -122.9552022 -0.748079E-06  0.104E-03    2.35      10.5  T
   5   -122.9552022 -0.467741E-07  0.511E-04    2.35      21.4  T
   6   -122.9552022 -0.215410E-07  0.144E-04    2.35      75.7  T
     SCC iter.                  ...        0 min,  1.151 sec
     gradient                   ...        0 min,  0.121 sec
 * total energy  :  -120.9195600 Eh     change       -0.1513719E-04 Eh
   gradient norm :     0.0007091 Eh/α   predicted    -0.6395015E-05 ( -57.75%)
   displ. norm   :     0.2256704 α      lambda       -0.1194560E-04
   maximum displ.:     0.1258699 α      in ANC's #1, #6, #3, ...

........................................................................
.............................. CYCLE   36 ..............................
........................................................................

 iter      E             dE          RMSdq      gap      omega  full diag
   1   -122.9552075 -0.122955E+03  0.260E-02    2.35       0.0  T
   2   -122.9552077 -0.223293E-06  0.151E-02    2.35       1.0  T
   3   -122.9552071  0.625117E-06  0.280E-03    2.35       3.9  T
   4   -122.9552078 -0.673441E-06  0.102E-03    2.35      10.7  T
   5   -122.9552078 -0.478060E-07  0.492E-04    2.35      22.2  T
   6   -122.9552079 -0.205511E-07  0.135E-04    2.35      80.7  T
     SCC iter.                  ...        0 min,  1.260 sec
     gradient                   ...        0 min,  0.117 sec
 * total energy  :  -120.9195748 Eh     change       -0.1481690E-04 Eh
   gradient norm :     0.0007298 Eh/α   predicted    -0.6109778E-05 ( -58.76%)
   displ. norm   :     0.2398610 α      lambda       -0.1293045E-04
   maximum displ.:     0.1359853 α      in ANC's #1, #6, #3, ...

........................................................................
.............................. CYCLE   37 ..............................
........................................................................

 iter      E             dE          RMSdq      gap      omega  full diag
   1   -122.9555420 -0.122956E+03  0.268E-02    2.35       0.0  T
   2   -122.9555422 -0.237514E-06  0.155E-02    2.35       1.0  T
   3   -122.9555416  0.637059E-06  0.283E-03    2.35       3.9  T
   4   -122.9555423 -0.670785E-06  0.114E-03    2.35       9.5  T
   5   -122.9555423 -0.700188E-07  0.498E-04    2.35      21.9  T
   6   -122.9555423 -0.209074E-07  0.146E-04    2.35      74.8  T
     SCC iter.                  ...        0 min,  0.936 sec
     gradient                   ...        0 min,  0.139 sec
 * total energy  :  -120.9195911 Eh     change       -0.1624775E-04 Eh
   gradient norm :     0.0007428 Eh/α   predicted    -0.6634639E-05 ( -59.17%)
   displ. norm   :     0.2739064 α      lambda       -0.1467093E-04
   maximum displ.:     0.1581278 α      in ANC's #1, #6, #3, ...

........................................................................
.............................. CYCLE   38 ..............................
........................................................................

 iter      E             dE          RMSdq      gap      omega  full diag
   1   -122.9555476 -0.122956E+03  0.295E-02    2.35       0.0  T
   2   -122.9555480 -0.338387E-06  0.169E-02    2.35       1.0  T
   3   -122.9555472  0.734232E-06  0.326E-03    2.35       3.4  T
   4   -122.9555479 -0.704947E-06  0.157E-03    2.36       6.9  T
   5   -122.9555481 -0.158593E-06  0.579E-04    2.36      18.8  T
   6   -122.9555481 -0.289265E-07  0.162E-04    2.36      67.2  T
     SCC iter.                  ...        0 min,  1.129 sec
     gradient                   ...        0 min,  0.119 sec
 * total energy  :  -120.9196096 Eh     change       -0.1846802E-04 Eh
   gradient norm :     0.0007405 Eh/α   predicted    -0.7582179E-05 ( -58.94%)
   displ. norm   :     0.3232428 α      lambda       -0.1730170E-04
   maximum displ.:     0.1886958 α      in ANC's #1, #6, #3, ...

........................................................................
.............................. CYCLE   39 ..............................
........................................................................

 iter      E             dE          RMSdq      gap      omega  full diag
   1   -122.9556150 -0.122956E+03  0.338E-02    2.36       0.0  T
   2   -122.9556154 -0.407689E-06  0.193E-02    2.36       1.0  T
   3   -122.9556146  0.799615E-06  0.352E-03    2.36       3.1  T
   4   -122.9556153 -0.747208E-06  0.179E-03    2.36       6.1  T
   5   -122.9556155 -0.209923E-06  0.639E-04    2.36      17.1  T
   6   -122.9556156 -0.323925E-07  0.204E-04    2.36      53.4  T
     SCC iter.                  ...        0 min,  1.001 sec
     gradient                   ...        0 min,  0.118 sec
 * total energy  :  -120.9196313 Eh     change       -0.2175612E-04 Eh
   gradient norm :     0.0008099 Eh/α   predicted    -0.9055523E-05 ( -58.38%)
   displ. norm   :     0.3871294 α      lambda       -0.2010058E-04
   maximum displ.:     0.2278384 α      in ANC's #1, #6, #3, ...

........................................................................
.............................. CYCLE   40 ..............................
........................................................................

 iter      E             dE          RMSdq      gap      omega  full diag
   1   -122.9555146 -0.122956E+03  0.398E-02    2.36       0.0  T
   2   -122.9555152 -0.605562E-06  0.227E-02    2.36       1.0  T
   3   -122.9555141  0.113588E-05  0.434E-03    2.36       2.5  T
   4   -122.9555152 -0.105737E-05  0.218E-03    2.36       5.0  T
   5   -122.9555155 -0.301279E-06  0.798E-04    2.36      13.7  T
   6   -122.9555155 -0.504566E-07  0.246E-04    2.36      44.3  T
     SCC iter.                  ...        0 min,  0.966 sec
     gradient                   ...        0 min,  0.118 sec
 * total energy  :  -120.9196557 Eh     change       -0.2437634E-04 Eh
   gradient norm :     0.0009486 Eh/α   predicted    -0.1072176E-04 ( -56.02%)
   displ. norm   :     0.4110154 α      lambda       -0.2023364E-04
   maximum displ.:     0.2442784 α      in ANC's #1, #6, #3, ...

........................................................................
.............................. CYCLE   41 ..............................
........................................................................

 iter      E             dE          RMSdq      gap      omega  full diag
   1   -122.9553449 -0.122955E+03  0.415E-02    2.36       0.0  T
   2   -122.9553455 -0.614964E-06  0.236E-02    2.36       1.0  T
   3   -122.9553445  0.986481E-06  0.419E-03    2.36       2.6  T
   4   -122.9553454 -0.868148E-06  0.223E-03    2.36       4.9  T
   5   -122.9553457 -0.337883E-06  0.814E-04    2.36      13.4  T
   6   -122.9553458 -0.478562E-07  0.281E-04    2.36      38.8  T
     SCC iter.                  ...        0 min,  0.779 sec
     gradient                   ...        0 min,  0.149 sec
 * total energy  :  -120.9196789 Eh     change       -0.2324257E-04 Eh
   gradient norm :     0.0009865 Eh/α   predicted    -0.1087785E-04 ( -53.20%)
   displ. norm   :     0.3648529 α      lambda       -0.1686534E-04
   maximum displ.:     0.2192379 α      in ANC's #6, #1, #3, ...

........................................................................
.............................. CYCLE   42 ..............................
........................................................................

 iter      E             dE          RMSdq      gap      omega  full diag
   1   -122.9555977 -0.122956E+03  0.368E-02    2.37       0.0  T
   2   -122.9555982 -0.523889E-06  0.209E-02    2.37       1.0  T
   3   -122.9555975  0.768139E-06  0.379E-03    2.37       2.9  T
   4   -122.9555981 -0.661383E-06  0.202E-03    2.37       5.4  T
   5   -122.9555984 -0.281408E-06  0.763E-04    2.37      14.3  T
   6   -122.9555984 -0.426031E-07  0.258E-04    2.37      42.2  T
     SCC iter.                  ...        0 min,  0.749 sec
     gradient                   ...        0 min,  0.118 sec
 * total energy  :  -120.9196977 Eh     change       -0.1872753E-04 Eh
   gradient norm :     0.0007616 Eh/α   predicted    -0.8933515E-05 ( -52.30%)
   displ. norm   :     0.3260815 α      lambda       -0.1342260E-04
   maximum displ.:     0.1985646 α      in ANC's #1, #6, #3, ...
 * RMSD in coord.:     0.4490928 α      energy gain  -0.3850779E-03 Eh

generating ANC from exact Hessian ...
Using Lindh-Hessian (1995)
 Shifting diagonal of input Hessian by    9.9170211592833780E-003
 Lowest  eigenvalues of input Hessian
    0.000000    0.000000    0.000000    0.000000    0.000000    0.000000
    0.010000    0.010057    0.010180    0.010260    0.010379    0.010419
    0.010534    0.010580    0.010795    0.010983    0.011039    0.011213
 Highest eigenvalues
    2.016022    2.021380    2.026373    2.075152    2.115273    2.125540


........................................................................
.............................. CYCLE   43 ..............................
........................................................................

 iter      E             dE          RMSdq      gap      omega  full diag
   1   -122.9553631 -0.122955E+03  0.329E-02    2.37       0.0  T
   2   -122.9553635 -0.460124E-06  0.185E-02    2.37       1.0  T
   3   -122.9553630  0.550615E-06  0.344E-03    2.37       3.2  T
   4   -122.9553633 -0.349063E-06  0.206E-03    2.37       5.3  T
   5   -122.9553637 -0.344263E-06  0.670E-04    2.37      16.3  T
   6   -122.9553637 -0.326711E-07  0.215E-04    2.37      50.7  T
     SCC iter.                  ...        0 min,  1.001 sec
     gradient                   ...        0 min,  0.118 sec
 * total energy  :  -120.9197126 Eh     change       -0.1495193E-04 Eh
   gradient norm :     0.0007682 Eh/α   predicted     0.0000000E+00 (-100.00%)
   displ. norm   :     0.0257054 α      lambda       -0.5529541E-05
   maximum displ.:     0.0089604 α      in ANC's #2, #15, #6, ...

........................................................................
.............................. CYCLE   44 ..............................
........................................................................

 iter      E             dE          RMSdq      gap      omega  full diag
   1   -122.9561419 -0.122956E+03  0.570E-03    2.37       0.0  T
   2   -122.9561420 -0.504324E-07  0.315E-03    2.37       3.5  T
   3   -122.9561420  0.156469E-07  0.932E-04    2.37      11.7  T
   4   -122.9561420 -0.197424E-07  0.402E-04    2.37      27.1  T
     SCC iter.                  ...        0 min,  0.475 sec
     gradient                   ...        0 min,  0.146 sec
 * total energy  :  -120.9197186 Eh     change       -0.6002652E-05 Eh
   gradient norm :     0.0004024 Eh/α   predicted    -0.2776199E-05 ( -53.75%)
   displ. norm   :     0.0830303 α      lambda       -0.1155163E-04
   maximum displ.:     0.0347621 α      in ANC's #2, #6, #15, ...

........................................................................
.............................. CYCLE   45 ..............................
........................................................................

 iter      E             dE          RMSdq      gap      omega  full diag
   1   -122.9570622 -0.122957E+03  0.173E-02    2.37       0.0  T
   2   -122.9570625 -0.324456E-06  0.892E-03    2.37       1.2  T
   3   -122.9570625  0.688297E-07  0.237E-03    2.37       4.6  T
   4   -122.9570625 -0.498138E-07  0.138E-03    2.38       7.9  T
   5   -122.9570626 -0.826290E-07  0.332E-04    2.37      32.9  T
   6   -122.9570626 -0.261521E-08  0.182E-04    2.38      59.9  T
     SCC iter.                  ...        0 min,  0.829 sec
     gradient                   ...        0 min,  0.118 sec
 * total energy  :  -120.9197271 Eh     change       -0.8440355E-05 Eh
   gradient norm :     0.0012457 Eh/α   predicted    -0.5798132E-05 ( -31.30%)
   displ. norm   :     0.1055883 α      lambda       -0.1336387E-04
   maximum displ.:     0.0405314 α      in ANC's #2, #15, #6, ...

........................................................................
.............................. CYCLE   46 ..............................
........................................................................

 iter      E             dE          RMSdq      gap      omega  full diag
   1   -122.9567477 -0.122957E+03  0.172E-02    2.38       0.0  T
   2   -122.9567482 -0.469777E-06  0.972E-03    2.38       1.1  T
   3   -122.9567481  0.985158E-07  0.254E-03    2.38       4.3  T
   4   -122.9567482 -0.952693E-07  0.123E-03    2.38       8.9  T
   5   -122.9567482 -0.695055E-07  0.553E-04    2.38      19.7  T
   6   -122.9567482 -0.301975E-08  0.320E-04    2.38      34.1  T
     SCC iter.                  ...        0 min,  0.995 sec
     gradient                   ...        0 min,  0.118 sec
 * total energy  :  -120.9197356 Eh     change       -0.8591955E-05 Eh
   gradient norm :     0.0011692 Eh/α   predicted    -0.6715925E-05 ( -21.83%)
   displ. norm   :     0.0424853 α      lambda       -0.6662487E-05
   maximum displ.:     0.0165429 α      in ANC's #2, #7, #6, ...

........................................................................
.............................. CYCLE   47 ..............................
........................................................................

 iter      E             dE          RMSdq      gap      omega  full diag
   1   -122.9560597 -0.122956E+03  0.791E-03    2.38       0.0  T
   2   -122.9560598 -0.127131E-06  0.408E-03    2.38       2.7  T
   3   -122.9560598  0.416011E-07  0.148E-03    2.38       7.4  T
   4   -122.9560599 -0.606357E-07  0.680E-04    2.37      16.1  T
   5   -122.9560599 -0.722642E-08  0.308E-04    2.37      35.4  T
     SCC iter.                  ...        0 min,  0.867 sec
     gradient                   ...        0 min,  0.168 sec
 * total energy  :  -120.9197426 Eh     change       -0.6943102E-05 Eh
   gradient norm :     0.0006013 Eh/α   predicted    -0.3334048E-05 ( -51.98%)
   displ. norm   :     0.0886183 α      lambda       -0.9329616E-05
   maximum displ.:     0.0384847 α      in ANC's #2, #6, #1, ...

........................................................................
.............................. CYCLE   48 ..............................
........................................................................

 iter      E             dE          RMSdq      gap      omega  full diag
   1   -122.9552467 -0.122955E+03  0.152E-02    2.38       0.0  T
   2   -122.9552470 -0.272149E-06  0.776E-03    2.38       1.4  T
   3   -122.9552469  0.498372E-07  0.200E-03    2.38       5.5  T
   4   -122.9552470 -0.607350E-07  0.102E-03    2.38      10.7  T
   5   -122.9552470 -0.317978E-07  0.421E-04    2.38      25.9  T
   6   -122.9552470 -0.100990E-07  0.191E-04    2.38      57.1  T
     SCC iter.                  ...        0 min,  0.693 sec
     gradient                   ...        0 min,  0.146 sec
 * total energy  :  -120.9197512 Eh     change       -0.8644115E-05 Eh
   gradient norm :     0.0008802 Eh/α   predicted    -0.4682111E-05 ( -45.83%)
   displ. norm   :     0.1330383 α      lambda       -0.8705196E-05
   maximum displ.:     0.0553927 α      in ANC's #2, #7, #1, ...

........................................................................
.............................. CYCLE   49 ..............................
........................................................................

 iter      E             dE          RMSdq      gap      omega  full diag
   1   -122.9548967 -0.122955E+03  0.183E-02    2.38       0.0  T
   2   -122.9548970 -0.342381E-06  0.975E-03    2.38       1.1  T
   3   -122.9548969  0.141787E-06  0.272E-03    2.38       4.0  T
   4   -122.9548970 -0.175996E-06  0.133E-03    2.38       8.2  T
   5   -122.9548971 -0.489467E-07  0.363E-04    2.38      30.0  T
   6   -122.9548971 -0.820523E-08  0.137E-04    2.38      79.7  T
     SCC iter.                  ...        0 min,  0.569 sec
     gradient                   ...        0 min,  0.114 sec
 * total energy  :  -120.9197597 Eh     change       -0.8438941E-05 Eh
   gradient norm :     0.0011441 Eh/α   predicted    -0.4387616E-05 ( -48.01%)
   displ. norm   :     0.1521308 α      lambda       -0.8617164E-05
   maximum displ.:     0.0687658 α      in ANC's #2, #6, #1, ...

........................................................................
.............................. CYCLE   50 ..............................
........................................................................

 iter      E             dE          RMSdq      gap      omega  full diag
   1   -122.9550526 -0.122955E+03  0.186E-02    2.38       0.0  T
   2   -122.9550527 -0.177159E-06  0.102E-02    2.38       1.1  T
   3   -122.9550527  0.592391E-07  0.194E-03    2.38       5.6  T
   4   -122.9550527 -0.213458E-07  0.116E-03    2.38       9.4  T
   5   -122.9550528 -0.847788E-07  0.247E-04    2.38      44.2  T
   6   -122.9550528 -0.234513E-08  0.136E-04    2.38      80.3  T
     SCC iter.                  ...        0 min,  0.727 sec
     gradient                   ...        0 min,  0.146 sec
 * total energy  :  -120.9197694 Eh     change       -0.9720488E-05 Eh
   gradient norm :     0.0008832 Eh/α   predicted    -0.4354039E-05 ( -55.21%)
   displ. norm   :     0.1636164 α      lambda       -0.9234839E-05
   maximum displ.:     0.0785290 α      in ANC's #2, #1, #7, ...

........................................................................
.............................. CYCLE   51 ..............................
........................................................................

 iter      E             dE          RMSdq      gap      omega  full diag
   1   -122.9559876 -0.122956E+03  0.201E-02    2.38       0.0  T
   2   -122.9559879 -0.254272E-06  0.108E-02    2.38       1.0  T
   3   -122.9559878  0.558128E-07  0.216E-03    2.38       5.1  T
   4   -122.9559878 -0.181054E-07  0.128E-03    2.38       8.6  T
   5   -122.9559879 -0.953588E-07  0.293E-04    2.38      37.2  T
   6   -122.9559879 -0.298795E-08  0.134E-04    2.38      81.4  T
     SCC iter.                  ...        0 min,  0.917 sec
     gradient                   ...        0 min,  0.129 sec
 * total energy  :  -120.9197793 Eh     change       -0.9939545E-05 Eh
   gradient norm :     0.0005610 Eh/α   predicted    -0.4676635E-05 ( -52.95%)
   displ. norm   :     0.1614634 α      lambda       -0.7263224E-05
   maximum displ.:     0.0825548 α      in ANC's #2, #1, #6, ...

........................................................................
.............................. CYCLE   52 ..............................
........................................................................

 iter      E             dE          RMSdq      gap      omega  full diag
   1   -122.9562923 -0.122956E+03  0.203E-02    2.38       0.0  T
   2   -122.9562925 -0.252338E-06  0.108E-02    2.38       1.0  T
   3   -122.9562925  0.626929E-07  0.226E-03    2.38       4.8  T
   4   -122.9562925 -0.534364E-08  0.138E-03    2.38       7.9  T
   5   -122.9562926 -0.117588E-06  0.323E-04    2.38      33.8  T
   6   -122.9562926 -0.527662E-08  0.146E-04    2.38      74.8  T
     SCC iter.                  ...        0 min,  0.902 sec
     gradient                   ...        0 min,  0.169 sec
 * total energy  :  -120.9197882 Eh     change       -0.8845020E-05 Eh
   gradient norm :     0.0007045 Eh/α   predicted    -0.3676929E-05 ( -58.43%)
   displ. norm   :     0.1462756 α      lambda       -0.8896559E-05
   maximum displ.:     0.0756602 α      in ANC's #2, #1, #7, ...

........................................................................
.............................. CYCLE   53 ..............................
........................................................................

 iter      E             dE          RMSdq      gap      omega  full diag
   1   -122.9567031 -0.122957E+03  0.206E-02    2.38       0.0  T
   2   -122.9567033 -0.280733E-06  0.108E-02    2.38       1.0  T
   3   -122.9567033  0.640307E-07  0.240E-03    2.38       4.5  T
   4   -122.9567033  0.226805E-10  0.146E-03    2.38       7.5  T
   5   -122.9567034 -0.126873E-06  0.338E-04    2.38      32.3  T
   6   -122.9567034 -0.650139E-08  0.148E-04    2.38      73.6  T
     SCC iter.                  ...        0 min,  1.005 sec
     gradient                   ...        0 min,  0.118 sec
 * total energy  :  -120.9197996 Eh     change       -0.1139998E-04 Eh
   gradient norm :     0.0009510 Eh/α   predicted    -0.4492987E-05 ( -60.59%)
   displ. norm   :     0.2111323 α      lambda       -0.1295500E-04
   maximum displ.:     0.1110735 α      in ANC's #2, #1, #6, ...

........................................................................
.............................. CYCLE   54 ..............................
........................................................................

 iter      E             dE          RMSdq      gap      omega  full diag
   1   -122.9563439 -0.122956E+03  0.300E-02    2.38       0.0  T
   2   -122.9563446 -0.616056E-06  0.156E-02    2.38       1.0  T
   3   -122.9563445  0.850055E-07  0.345E-03    2.38       3.2  T
   4   -122.9563444  0.565058E-07  0.203E-03    2.38       5.4  T
   5   -122.9563447 -0.278761E-06  0.440E-04    2.38      24.8  T
   6   -122.9563447 -0.868171E-08  0.207E-04    2.38      52.6  T
     SCC iter.                  ...        0 min,  1.002 sec
     gradient                   ...        0 min,  0.117 sec
 * total energy  :  -120.9198160 Eh     change       -0.1637466E-04 Eh
   gradient norm :     0.0007749 Eh/α   predicted    -0.6607481E-05 ( -59.65%)
   displ. norm   :     0.2528569 α      lambda       -0.1400747E-04
   maximum displ.:     0.1334130 α      in ANC's #2, #1, #6, ...

........................................................................
.............................. CYCLE   55 ..............................
........................................................................

 iter      E             dE          RMSdq      gap      omega  full diag
   1   -122.9559727 -0.122956E+03  0.349E-02    2.38       0.0  T
   2   -122.9559736 -0.822648E-06  0.184E-02    2.38       1.0  T
   3   -122.9559734  0.146541E-06  0.403E-03    2.38       2.7  T
   4   -122.9559734  0.511028E-07  0.237E-03    2.38       4.6  T
   5   -122.9559738 -0.390218E-06  0.500E-04    2.38      21.8  T
   6   -122.9559738 -0.917244E-08  0.264E-04    2.38      41.3  T
     SCC iter.                  ...        0 min,  0.956 sec
     gradient                   ...        0 min,  0.117 sec
 * total energy  :  -120.9198334 Eh     change       -0.1741080E-04 Eh
   gradient norm :     0.0007017 Eh/α   predicted    -0.7203336E-05 ( -58.63%)
   displ. norm   :     0.2432038 α      lambda       -0.1254239E-04
   maximum displ.:     0.1322448 α      in ANC's #2, #1, #6, ...

........................................................................
.............................. CYCLE   56 ..............................
........................................................................

 iter      E             dE          RMSdq      gap      omega  full diag
   1   -122.9555845 -0.122956E+03  0.325E-02    2.38       0.0  T
   2   -122.9555853 -0.759164E-06  0.170E-02    2.38       1.0  T
   3   -122.9555852  0.106002E-06  0.377E-03    2.38       2.9  T
   4   -122.9555851  0.651920E-07  0.218E-03    2.38       5.0  T
   5   -122.9555854 -0.343389E-06  0.440E-04    2.38      24.8  T
   6   -122.9555854 -0.715661E-08  0.232E-04    2.38      47.0  T
     SCC iter.                  ...        0 min,  1.076 sec
     gradient                   ...        0 min,  0.117 sec
 * total energy  :  -120.9198495 Eh     change       -0.1614058E-04 Eh
   gradient norm :     0.0006665 Eh/α   predicted    -0.6438521E-05 ( -60.11%)
   displ. norm   :     0.2461175 α      lambda       -0.1335219E-04
   maximum displ.:     0.1364480 α      in ANC's #2, #1, #6, ...

........................................................................
.............................. CYCLE   57 ..............................
........................................................................

 iter      E             dE          RMSdq      gap      omega  full diag
   1   -122.9555425 -0.122956E+03  0.314E-02    2.38       0.0  T
   2   -122.9555432 -0.703306E-06  0.166E-02    2.38       1.0  T
   3   -122.9555430  0.175265E-06  0.372E-03    2.38       2.9  T
   4   -122.9555431 -0.551003E-07  0.212E-03    2.38       5.2  T
   5   -122.9555434 -0.293396E-06  0.439E-04    2.38      24.9  T
   6   -122.9555434 -0.663091E-08  0.257E-04    2.38      42.5  T
     SCC iter.                  ...        0 min,  0.911 sec
     gradient                   ...        0 min,  0.118 sec
 * total energy  :  -120.9198671 Eh     change       -0.1762129E-04 Eh
   gradient norm :     0.0006643 Eh/α   predicted    -0.6859665E-05 ( -61.07%)
   displ. norm   :     0.2913464 α      lambda       -0.1625866E-04
   maximum displ.:     0.1653706 α      in ANC's #2, #1, #6, ...

........................................................................
.............................. CYCLE   58 ..............................
........................................................................

 iter      E             dE          RMSdq      gap      omega  full diag
   1   -122.9553292 -0.122955E+03  0.368E-02    2.38       0.0  T
   2   -122.9553302 -0.100027E-05  0.193E-02    2.38       1.0  T
   3   -122.9553300  0.189912E-06  0.433E-03    2.38       2.5  T
   4   -122.9553300 -0.278732E-07  0.247E-03    2.38       4.4  T
   5   -122.9553304 -0.399363E-06  0.448E-04    2.38      24.4  T
   6   -122.9553304 -0.652612E-08  0.259E-04    2.38      42.1  T
     SCC iter.                  ...        0 min,  0.700 sec
     gradient                   ...        0 min,  0.116 sec
 * total energy  :  -120.9198881 Eh     change       -0.2100000E-04 Eh
   gradient norm :     0.0007750 Eh/α   predicted    -0.8437955E-05 ( -59.82%)
   displ. norm   :     0.3388730 α      lambda       -0.1827035E-04
   maximum displ.:     0.1948189 α      in ANC's #2, #1, #6, ...

........................................................................
.............................. CYCLE   59 ..............................
........................................................................

 iter      E             dE          RMSdq      gap      omega  full diag
   1   -122.9554254 -0.122955E+03  0.422E-02    2.39       0.0  T
   2   -122.9554266 -0.123605E-05  0.224E-02    2.39       1.0  T
   3   -122.9554263  0.333229E-06  0.496E-03    2.39       2.2  T
[...]
    15  16 S        2.064    -0.057   143.404    20.155
    16   6 C        2.973     0.038    27.139     8.545
    17   6 C        2.969    -0.033    28.818     8.805
    18   6 C        2.922    -0.024    28.608     8.771
    19   6 C        2.919    -0.024    28.602     8.770
    20   6 C        2.922    -0.024    28.605     8.771
    21   6 C        2.948    -0.032    28.804     8.802
    22   7 N        2.683    -0.126    23.749     7.238
    23   6 C        3.870    -0.031    21.076     6.528
    24   6 C        3.065     0.053    26.755     8.482
    25   6 C        2.916    -0.052    29.291     8.875
    26   6 C        2.918    -0.033    28.825     8.804
    27   6 C        2.987     0.013    27.725     8.637
    28   6 C        2.919    -0.030    28.761     8.794
    29   6 C        2.915    -0.022    28.560     8.763
    30   6 C        2.917    -0.022    28.567     8.765
    31   6 C        2.917    -0.033    28.813     8.802
    32   6 C        2.988     0.012    27.739     8.639
    33   6 C        2.978    -0.009    28.235     8.716
    34   6 C        2.979    -0.006    28.173     8.707
    35   6 C        3.216     0.052    26.171     8.322
    36   6 C        2.914    -0.044    29.091     8.845
    37   6 C        2.920    -0.030    28.747     8.792
    38   6 C        2.986     0.014    27.682     8.631
    39   6 C        2.919    -0.029    28.733     8.790
    40   6 C        2.915    -0.022    28.563     8.764
    41   6 C        2.916    -0.023    28.590     8.768
    42   6 C        2.917    -0.033    28.814     8.802
    43   6 C        2.988     0.013    27.721     8.637
    44   7 N        2.684    -0.118    23.580     7.212
    45   6 C        3.783    -0.039    21.283     6.571
    46   1 H        0.925     0.055     2.264     2.353
    47   1 H        0.925     0.071     2.069     2.249
    48   1 H        0.925     0.052     2.296     2.369
    49   1 H        0.924     0.066     2.131     2.283
    50   1 H        0.925     0.061     2.186     2.312
    51   1 H        0.925     0.056     2.248     2.345
    52   1 H        0.925     0.065     2.138     2.286
    53   1 H        0.924     0.054     2.273     2.358
    54   1 H        0.925     0.046     2.371     2.408
    55   1 H        0.925     0.058     2.218     2.329
    56   1 H        0.925     0.062     2.176     2.307
    57   1 H        0.925     0.026     2.649     2.545
    58   1 H        0.926     0.045     2.384     2.415
    59   1 H        0.926     0.052     2.297     2.370
    60   1 H        0.926     0.051     2.310     2.377
    61   1 H        0.926     0.039     2.456     2.451
    62   1 H        0.926     0.046     2.371     2.408
    63   1 H        0.926     0.053     2.285     2.364
    64   1 H        0.926     0.057     2.239     2.340
    65   1 H        0.926     0.056     2.244     2.343
    66   1 H        0.926     0.051     2.304     2.374
    67   1 H        0.924     0.064     2.154     2.295
    68   1 H        0.924     0.066     2.132     2.283
    69   1 H        0.924     0.054     2.272     2.357
    70   1 H        0.926     0.039     2.466     2.456
    71   1 H        0.926     0.052     2.291     2.367
    72   1 H        0.926     0.048     2.348     2.396
    73   1 H        0.926     0.051     2.312     2.378
    74   1 H        0.926     0.048     2.349     2.397
    75   1 H        0.926     0.038     2.472     2.458
    76   1 H        0.926     0.042     2.421     2.433
    77   1 H        0.926     0.056     2.249     2.345
    78   1 H        0.926     0.049     2.328     2.386
    79   1 H        0.926     0.051     2.310     2.377
    80   1 H        0.926     0.046     2.365     2.405
    81   1 H        0.926     0.037     2.489     2.467
    82   1 H        0.924     0.059     2.209     2.324
    83   1 H        0.925     0.067     2.119     2.276
    84   1 H        0.924     0.070     2.083     2.257

 Mol. C6AA /au·bohr⁶  :      97486.213638
 Mol. C8AA /au·bohr⁸  :    2627226.240068
 Mol. α(0) /au        :        501.859952


Wiberg/Mayer (AO) data.
largest (>0.10) Wiberg bond orders for each atom

 ---------------------------------------------------------------------------
     #   Z sym  total        # sym  WBO       # sym  WBO       # sym  WBO
 ---------------------------------------------------------------------------
     1   6 C    3.988 --     2 C    1.008    48 H    0.981    47 H    0.978
                            46 H    0.959
     2   6 C    3.956 --     1 C    1.008     3 C    1.004    49 H    0.951
                             4 N    0.939
     3   6 C    3.980 --     2 C    1.004    51 H    0.981    52 H    0.980
                            50 H    0.967
     4   7 N    3.413 --    13 P    1.276     2 C    0.939     5 C    0.919
     5   6 C    3.953 --     6 C    1.003     7 C    0.987    53 H    0.937
                             4 N    0.919
     6   6 C    3.990 --     5 C    1.003    54 H    0.980    56 H    0.979
                            55 H    0.978
     7   6 C    3.983 --    12 C    1.417     8 C    1.405     5 C    0.987
                            10 C    0.110
     8   6 C    3.991 --     9 C    1.447     7 C    1.405    57 H    0.965
                            11 C    0.111
     9   6 C    3.991 --     8 C    1.447    10 C    1.435    58 H    0.970
                            12 C    0.110
    10   6 C    3.989 --    11 C    1.442     9 C    1.435    59 H    0.970
                             7 C    0.110
    11   6 C    3.990 --    10 C    1.442    12 C    1.440    60 H    0.970
                             8 C    0.111
    12   6 C    3.990 --    11 C    1.440     7 C    1.417    61 H    0.962
                             9 C    0.110
    13  15 P    5.135 --     4 N    1.276    44 N    1.227    22 N    1.218
                            14 S    0.953
    14  16 S    2.451 --    15 S    1.170    13 P    0.953
    15  16 S    2.369 --    14 S    1.170    16 C    0.983
    16   6 C    3.954 --    21 C    1.404    17 C    1.401    15 S    0.983
                            19 C    0.102
    17   6 C    3.989 --    18 C    1.440    16 C    1.401    62 H    0.964
                            20 C    0.109
    18   6 C    3.991 --    17 C    1.440    19 C    1.438    63 H    0.968
                            21 C    0.110
    19   6 C    3.982 --    18 C    1.438    20 C    1.433    64 H    0.969
                            16 C    0.102
    20   6 C    3.990 --    21 C    1.443    19 C    1.433    65 H    0.968
                            17 C    0.109
    21   6 C    3.989 --    20 C    1.443    16 C    1.404    66 H    0.966
                            18 C    0.110
    22   7 N    3.425 --    13 P    1.218    24 C    0.976    23 C    0.973
    23   6 C    3.963 --    68 H    0.977    22 N    0.973    69 H    0.972
                            67 H    0.961
    24   6 C    3.948 --    33 C    1.457    25 C    1.284    22 N    0.976
    25   6 C    3.985 --    26 C    1.556    24 C    1.284    70 H    0.962
    26   6 C    3.984 --    25 C    1.556    27 C    1.274    71 H    0.966
                            33 C    0.106
    27   6 C    3.989 --    28 C    1.280    26 C    1.274    32 C    1.254
    28   6 C    3.989 --    29 C    1.555    27 C    1.280    72 H    0.967
                            31 C    0.118
    29   6 C    3.986 --    28 C    1.555    30 C    1.323    73 H    0.969
    30   6 C    3.990 --    31 C    1.552    29 C    1.323    74 H    0.970
    31   6 C    3.990 --    30 C    1.552    32 C    1.285    75 H    0.965
                            28 C    0.118
    32   6 C    3.986 --    31 C    1.285    27 C    1.254    33 C    1.232
    33   6 C    3.985 --    24 C    1.457    32 C    1.232    34 C    1.031
                            26 C    0.106
    34   6 C    3.986 --    35 C    1.456    43 C    1.234    33 C    1.031
                            37 C    0.105
    35   6 C    3.950 --    34 C    1.456    36 C    1.289    44 N    0.961
    36   6 C    3.989 --    37 C    1.555    35 C    1.289    76 H    0.964
    37   6 C    3.984 --    36 C    1.555    38 C    1.273    77 H    0.966
                            34 C    0.105
    38   6 C    3.989 --    39 C    1.281    37 C    1.273    43 C    1.254
    39   6 C    3.988 --    40 C    1.555    38 C    1.281    78 H    0.967
                            42 C    0.117
    40   6 C    3.987 --    39 C    1.555    41 C    1.323    79 H    0.969
    41   6 C    3.990 --    42 C    1.551    40 C    1.323    80 H    0.970
    42   6 C    3.989 --    41 C    1.551    43 C    1.283    81 H    0.966
                            39 C    0.117
    43   6 C    3.987 --    42 C    1.283    38 C    1.254    34 C    1.234
    44   7 N    3.429 --    13 P    1.227    45 C    0.973    35 C    0.961
    45   6 C    3.958 --    84 H    0.976    82 H    0.975    44 N    0.973
                            83 H    0.965
    46   1 H    0.997 --     1 C    0.959
    47   1 H    0.994 --     1 C    0.978
    48   1 H    0.997 --     1 C    0.981
    49   1 H    0.994 --     2 C    0.951
    50   1 H    0.996 --     3 C    0.967
    51   1 H    0.997 --     3 C    0.981
    52   1 H    0.995 --     3 C    0.980
    53   1 H    0.996 --     5 C    0.937
    54   1 H    0.997 --     6 C    0.980
    55   1 H    0.996 --     6 C    0.978
    56   1 H    0.995 --     6 C    0.979
    57   1 H    0.999 --     8 C    0.965
    58   1 H    0.998 --     9 C    0.970
    59   1 H    0.997 --    10 C    0.970
    60   1 H    0.997 --    11 C    0.970
    61   1 H    0.998 --    12 C    0.962
    62   1 H    0.998 --    17 C    0.964
    63   1 H    0.997 --    18 C    0.968
    64   1 H    0.996 --    19 C    0.969
    65   1 H    0.997 --    20 C    0.968
    66   1 H    0.997 --    21 C    0.966
    67   1 H    0.995 --    23 C    0.961
    68   1 H    0.995 --    23 C    0.977
    69   1 H    0.997 --    23 C    0.972
    70   1 H    0.997 --    25 C    0.962
    71   1 H    0.996 --    26 C    0.966
    72   1 H    0.997 --    28 C    0.967
    73   1 H    0.997 --    29 C    0.969
    74   1 H    0.997 --    30 C    0.970
    75   1 H    0.998 --    31 C    0.965
    76   1 H    0.997 --    36 C    0.964
    77   1 H    0.995 --    37 C    0.966
    78   1 H    0.997 --    39 C    0.967
    79   1 H    0.997 --    40 C    0.969
    80   1 H    0.997 --    41 C    0.970
    81   1 H    0.998 --    42 C    0.966
    82   1 H    0.996 --    45 C    0.975
    83   1 H    0.995 --    45 C    0.965
    84   1 H    0.995 --    45 C    0.976
 ---------------------------------------------------------------------------

Topologies differ in total number of bonds
Writing topology from bond orders to xtbtopo.mol

molecular dipole:
                 x           y           z       tot (Debye)
 q only:       -1.095      -0.084       0.100
   full:       -0.973      -0.004       0.210       2.531
molecular quadrupole (traceless):
                xx          xy          yy          xz          yz          zz
 q only:       14.729       9.468       6.620       0.094       1.213     -21.348
  q+dip:       16.194      10.439       3.448      -0.402       3.284     -19.642
   full:       12.865      10.694       7.649      -1.549       1.884     -20.515

           -------------------------------------------------
          |                Geometry Summary                 |
           -------------------------------------------------

      molecular mass/u    :      644.8518358
   center of mass at/Å    :        0.1909500       0.2034208      -0.2035882
  moments of inertia/u·Å² :        0.5548402E+04   0.7167182E+04   0.9439553E+04
rotational constants/cm⁻¹ :        0.3038286E-02   0.2352059E-02   0.1785851E-02

 * 87 selected distances

     #   Z          #   Z                                           value/Å
     1   6 C        2   6 C                                       1.5226409
     2   6 C        3   6 C                                       1.5266980
     2   6 C        4   7 N                                       1.4710836
     4   7 N        5   6 C                                       1.4830030
     5   6 C        6   6 C                                       1.5256435
     7   6 C        8   6 C                                       1.3925390
     8   6 C        9   6 C                                       1.3829803
     9   6 C       10   6 C                                       1.3847848
    10   6 C       11   6 C                                       1.3837945
     7   6 C       12   6 C                                       1.3896509
    11   6 C       12   6 C                                       1.3849036
     4   7 N       13  15 P                                       1.6446368
    13  15 P       14  16 S                                       2.1505422 (max)
    14  16 S       15  16 S                                       2.0415702
    16   6 C       17   6 C                                       1.3863679
    17   6 C       18   6 C                                       1.3842964
    18   6 C       19   6 C                                       1.3856915
    19   6 C       20   6 C                                       1.3861685
    16   6 C       21   6 C                                       1.3857343
    20   6 C       21   6 C                                       1.3834573
    13  15 P       22   7 N                                       1.6570509
    22   7 N       23   6 C                                       1.4571426
    22   7 N       24   6 C                                       1.4296540
    24   6 C       25   6 C                                       1.4086623
    25   6 C       26   6 C                                       1.3643453
    26   6 C       27   6 C                                       1.4092948
    27   6 C       28   6 C                                       1.4101467
    28   6 C       29   6 C                                       1.3664045
    29   6 C       30   6 C                                       1.4028361
    30   6 C       31   6 C                                       1.3675103
    27   6 C       32   6 C                                       1.4193696
    31   6 C       32   6 C                                       1.4117056
    24   6 C       33   6 C                                       1.3783458
    32   6 C       33   6 C                                       1.4251126
    34   6 C       35   6 C                                       1.3758539
    35   6 C       36   6 C                                       1.4054707
    36   6 C       37   6 C                                       1.3647736
    37   6 C       38   6 C                                       1.4110125
    38   6 C       39   6 C                                       1.4102908
    39   6 C       40   6 C                                       1.3667783
    40   6 C       41   6 C                                       1.4031481
    41   6 C       42   6 C                                       1.3676711
    34   6 C       43   6 C                                       1.4223408
    38   6 C       43   6 C                                       1.4202445
    42   6 C       43   6 C                                       1.4116242
    13  15 P       44   7 N                                       1.6570920
    35   6 C       44   7 N                                       1.4332749
    44   7 N       45   6 C                                       1.4524132
     1   6 C       46   1 H                                       1.0890714
     1   6 C       47   1 H                                       1.0866772
     1   6 C       48   1 H                                       1.0866795
     2   6 C       49   1 H                                       1.0916552
     3   6 C       50   1 H                                       1.0871790
     3   6 C       51   1 H                                       1.0861016
     3   6 C       52   1 H                                       1.0867128
     5   6 C       53   1 H                                       1.0946917
     6   6 C       54   1 H                                       1.0877566
     6   6 C       55   1 H                                       1.0849929
     6   6 C       56   1 H                                       1.0874586
     8   6 C       57   1 H                                       1.0825311
     9   6 C       58   1 H                                       1.0792276
    10   6 C       59   1 H                                       1.0787095
    11   6 C       60   1 H                                       1.0790632
    12   6 C       61   1 H                                       1.0791351
    17   6 C       62   1 H                                       1.0796768
    18   6 C       63   1 H                                       1.0790643
    19   6 C       64   1 H                                       1.0788330
    20   6 C       65   1 H                                       1.0788966
    21   6 C       66   1 H                                       1.0802122
    23   6 C       67   1 H                                       1.0906058
    23   6 C       68   1 H                                       1.0903721
    23   6 C       69   1 H                                       1.0915558
    25   6 C       70   1 H                                       1.0787078 (min)
    26   6 C       71   1 H                                       1.0793114
    28   6 C       72   1 H                                       1.0797855
    29   6 C       73   1 H                                       1.0789822
    30   6 C       74   1 H                                       1.0792606
    31   6 C       75   1 H                                       1.0790458
    36   6 C       76   1 H                                       1.0792762
    37   6 C       77   1 H                                       1.0789301
    39   6 C       78   1 H                                       1.0795901
    40   6 C       79   1 H                                       1.0789792
    41   6 C       80   1 H                                       1.0793937
    42   6 C       81   1 H                                       1.0798606
    45   6 C       82   1 H                                       1.0913544
    45   6 C       83   1 H                                       1.0872489
    45   6 C       84   1 H                                       1.0906780

 * 6 distinct bonds (by element types)

   Z      Z             #   av. dist./Å        max./Å        min./Å
   1 H    6 C          39     1.0835196     1.0946917     1.0787078
   6 C    6 C          37     1.4034674     1.5266980     1.3643453
   6 C    7 N           6     1.4544285     1.4830030     1.4296540
   7 N   15 P           3     1.6529266     1.6570920     1.6446368
  15 P   16 S           1     2.1505422     2.1505422     2.1505422
  16 S   16 S           1     2.0415702     2.0415702     2.0415702


optimized geometry written to: xtbopt.xyz


           -------------------------------------------------
          | TOTAL ENERGY             -120.920369276521 Eh   |
          | GRADIENT NORM               0.000021514034 Eh/α |
          | HOMO-LUMO GAP               2.507956168310 eV   |
           -------------------------------------------------

------------------------------------------------------------------------
 * finished run on 2024/12/16 at 17:51:42.655     
------------------------------------------------------------------------
 total:
 * wall-time:     0 d,  0 h,  3 min,  9.259 sec
 *  cpu-time:     0 d,  0 h, 24 min, 48.485 sec
 * ratio c/w:     7.865 speedup
 SCF:
 * wall-time:     0 d,  0 h,  0 min,  2.315 sec
 *  cpu-time:     0 d,  0 h,  0 min, 18.151 sec
 * ratio c/w:     7.841 speedup
 ANC optimizer:
 * wall-time:     0 d,  0 h,  3 min,  6.727 sec
 *  cpu-time:     0 d,  0 h, 24 min, 28.728 sec
 * ratio c/w:     7.866 speedup

