101
 energy: -134.539178413804 gnorm: 0.000051644574 xtb: 6.7.1 (edcfbbe)
C           -3.94018391892379        3.25661017749209       -2.42979357102970
C           -2.90947112389534        3.56781730612320       -1.34963928594691
C           -1.63282630808558        2.73862081283142       -1.53119580992650
C           -0.85962948786134        3.17420049657763       -2.77429513107887
N           -0.77439261293757        2.76194042776343       -0.33038573383725
C           -0.18421837567893        4.04926030309833        0.06496097424160
C           -0.63159372063374        4.45312845052433        1.46440648860543
C            1.34448211610869        4.07398980351987       -0.07046684053408
C            1.86606261959069        5.46460417140510       -0.41407276752089
P           -0.39397584760537        1.26617327353097        0.25926383592398
S            1.05530521662476        1.47748805202443        1.76997525261060
S            1.32589040302153       -0.46592791551647        2.41610393894337
C            2.94655881028296       -0.86595618751530        1.75782902408832
C            4.06149595816157       -0.11894215777277        2.14366484887563
C            4.00256277399311        1.01680403647255        3.13482642844876
C            4.83742882261124        0.67451661217418        4.37144700247827
C            4.47557012967465        2.32799872328991        2.50346403158842
C            5.28887236582456       -0.46943636313170        1.59255703828972
C            5.40420705223845       -1.53552694850079        0.72356439357018
C            4.29279235646777       -2.29073544054712        0.39685942749302
C            3.04150054233577       -1.97181903214678        0.90467406245090
C            1.83749497053859       -2.83645641813991        0.62710694162312
C            1.64978361566507       -3.78374245039965        1.81777181836858
C            1.93339968380704       -3.64042410466221       -0.66692804760186
N           -1.78998921836822        0.59216418249621        0.85541983889793
C           -2.58996836302442        1.41914079762786        1.75162050944043
C           -1.77626123459901       -0.80911219925880        1.14718733928775
C           -1.81780497273707       -1.26373519858579        2.47796767748810
C           -1.86523284913234       -2.60011368630914        2.74501348772414
C           -1.83540097098195       -3.54837279852255        1.70246091813185
C           -1.86065233411530       -4.93349474415888        1.96815899537346
C           -1.79334106488707       -5.84210472721354        0.94934799859236
C           -1.67866578654195       -5.39973802710923       -0.37674224035612
C           -1.66031285072185       -4.06305224260159       -0.66742464093701
C           -1.76416416598613       -3.09846280335732        0.35826328534580
C           -1.78158320453739       -1.69761770654725        0.09649413765415
C           -1.79720241351386       -1.21290722711490       -1.29371386133880
C           -0.78477308141433       -0.40279913694616       -1.76408763745513
C           -0.67287811782086       -0.12948543385190       -3.14090684399849
C           -1.61526390906858       -0.58750769645577       -4.01508718708228
C           -2.74378872486935       -1.29681943294602       -3.55617436674889
C           -3.77212639105869       -1.70102649634329       -4.43218859142991
C           -4.86514437497484       -2.37252122083435       -3.96111363859681
C           -4.97852672390951       -2.65769251960114       -2.59202578138230
C           -3.99199355889159       -2.29052134125762       -1.71940367505617
C           -2.84003209722731       -1.61479268266494       -2.17643312643079
N            0.16461889447356        0.13850429851902       -0.83788058895610
C            1.54354168050079        0.26169471003123       -1.29593524443717
H           -4.86349677262299        3.79000140097129       -2.22154023946669
H           -3.58883233227683        3.56375704330221       -3.41021129445064
H           -4.15824932057897        2.19089415521026       -2.45686133691049
H           -2.67540273380889        4.63326153890596       -1.37170522002256
H           -3.35010427344435        3.34311386751134       -0.37770006000918
H           -1.94216496095536        1.69247310879632       -1.65160158485480
H           -1.38270218865294        2.84585341297016       -3.66718919587252
H            0.13540365968882        2.73711618220960       -2.78168405863098
H           -0.75503710411553        4.25529551728324       -2.81627679032085
H           -0.59006594020206        4.77552919912246       -0.64229722396791
H           -0.32992980120708        3.70738433949952        2.19617055816085
H           -1.71073695063282        4.57743872779927        1.50543870780470
H           -0.17207991554372        5.39967000692602        1.73374233151642
H            1.79970211015783        3.74519705424076        0.86508469169297
H            1.64596724690401        3.37734516106967       -0.85656781482697
H            1.58236851689772        6.18477241065797        0.34814504131284
H            1.47195959982722        5.80127868998442       -1.37019171175917
H            2.95055500222559        5.45088588684580       -0.47860396150334
H            2.96970029520371        1.15824013643932        3.46891472947660
H            4.74015031552245        1.46471817015673        5.11146999428843
H            4.49563072060363       -0.25829046281597        4.81426222493869
H            5.88878321923961        0.56967572159156        4.11864234563818
H            5.52725226367778        2.27521822488926        2.23644009391205
H            3.90361305726090        2.55150678395327        1.60482050134379
H            4.34397694012983        3.14485304324697        3.20818658359620
H            6.16766693217583        0.09433492547274        1.86125301980169
H            6.36815576594174       -1.79293654105228        0.31247866867036
H            4.40496616805464       -3.14020460905249       -0.25562935249032
H            0.95074065623205       -2.19504114304534        0.56209541250655
H            0.81202350202710       -4.45165321726234        1.63755369017466
H            2.54677663098151       -4.38053682267401        1.96707699640376
H            1.45408877139767       -3.21988122495488        2.72860849378376
H            2.22064702656524       -3.01068433962179       -1.50656461509379
H            0.96407647510759       -4.08267559694023       -0.88476220012829
H            2.65374530265936       -4.44871330836789       -0.57401903290769
H           -2.14627101942898        1.53493229702926        2.74352101702479
H           -3.57207006020390        0.95953109373967        1.85295302599834
H           -2.70012436145148        2.40671464274396        1.31155692464230
H           -1.81032183678048       -0.55500994838237        3.29010563620887
H           -1.91228283425450       -2.94778858034119        3.76547221468053
H           -1.92694853195296       -5.25981430739794        2.99532084400980
H           -1.81486095528566       -6.90062466521723        1.15746520079986
H           -1.59991291278481       -6.12480722895536       -1.17252375778727
H           -1.56400810381525       -3.73853020200037       -1.69218792558584
H            0.16636543920529        0.43609920262093       -3.51026537414007
H           -1.51586236548823       -0.39045541581365       -5.07167016852420
H           -3.68058642165590       -1.46146860182818       -5.48112035693545
H           -5.65023279377062       -2.67894044719819       -4.63486660766746
H           -5.85658809588611       -3.16903364702640       -2.22838730635570
H           -4.09411376293032       -2.50466767003762       -0.66661334101156
H            1.70001052211830        1.08706320733145       -1.99561129001385
H            2.20279289391672        0.41391901429450       -0.44166052643148
H            1.82569710816467       -0.67013248215185       -1.78297868514806
