86
 energy: -122.004319544828 gnorm: 0.000050104398 xtb: 6.7.1 (edcfbbe)
C            0.63522101484913       -0.16192756712616       -3.00885545969921
N           -0.14932914439592        0.11288078979302       -1.80822504480612
C           -1.43029243687602        0.71932401521287       -1.97014106531801
C           -1.66226440376310        1.59458597426757       -3.04847515146663
C           -2.88341210633157        2.18119583784345       -3.21233106499894
C           -3.92053540077606        1.96723932751369       -2.28061195117401
C           -5.16171656854960        2.62701703681866       -2.39148370507025
C           -6.14010289466233        2.43253181452313       -1.45735317487235
C           -5.91143093789837        1.57820471828265       -0.36817761783331
C           -4.72235859415189        0.91524273578115       -0.23895159099433
C           -3.69926088654193        1.07599285250043       -1.19791056300625
C           -2.44835713920028        0.40352642268466       -1.09337078855445
C           -2.25859759428976       -0.62984661702514       -0.05904233847384
C           -1.27388918278320       -0.46977658969277        0.88893187781992
C           -1.10020175046818       -1.39680082872178        1.93041158184981
C           -1.91908575745500       -2.48545945914713        2.01376962475874
C           -2.91125608096487       -2.72017864529596        1.03796901992062
C           -3.73399289374107       -3.86428679584666        1.08853104780736
C           -4.66941295075830       -4.09537510627679        0.11912230621289
C           -4.81097774332737       -3.19836349188507       -0.95012047595539
C           -4.03479695048162       -2.07486011718133       -1.02426217593076
C           -3.07897847214807       -1.79282832754788       -0.02540901767360
N           -0.40478653298089        0.66618575179542        0.75281669840053
C           -0.19004448567459        1.50566335161479        1.91940211450815
P            0.72286966871911        0.34707201143936       -0.42543846319449
S            2.02608704258756        2.00282185467513       -0.55347890326714
S            0.80460692465346        3.29159819955392       -1.59376824687496
C           -0.08167688904093        4.11565697446714       -0.27798626269207
C            0.61165997129308        4.85583561065708        0.66667641232498
C           -0.09479960450632        5.48466472895487        1.67645150552745
C           -1.47652113603782        5.38214705891252        1.72834037662807
C           -2.15836161488915        4.64919718102498        0.77035037871230
C           -1.46207739588086        4.00751762907206       -0.23939377524363
N            1.65625389324438       -1.00193988806580       -0.23799773473833
C            1.08073685683364       -2.31339486759448       -0.49174460979230
C            2.93945451898889       -0.81512870545005        0.45561072679897
C            3.22068092233418       -1.72886452502635        1.65158111716734
C            4.35558749674299       -1.06028823290478        2.43936759776646
C            5.60130036464040       -0.95520987434935        1.55590138745627
C            6.05279980313030       -2.35572174820779        1.14493767958690
C            4.92637236169772       -3.03504038627278        0.36875573961386
C            3.68659938639509       -3.13201767708349        1.25509281546850
C            4.59709836925664       -2.21910175796055       -0.88004806136073
C            4.15801257122243       -0.81272653376913       -0.47541537112361
C            5.29732680307208       -0.14100415173854        0.29723038916988
H            1.05055791435520        0.74459591876861       -3.45616086845471
H           -0.00298910281852       -0.65885403980078       -3.73835661924386
H            1.46066458860274       -0.82342728929046       -2.74913741717443
H           -0.86932976234180        1.81109409490297       -3.74490182253132
H           -3.05854539572035        2.84252795222169       -4.04700117671730
H           -5.31811410041364        3.29479788866973       -3.22542508359498
H           -7.08828164810740        2.93986027908050       -1.54566801069228
H           -6.68378643732077        1.44844836682080        0.37445167393740
H           -4.55368624085209        0.26908858464963        0.60883921007658
H           -0.32104855294546       -1.23823974040962        2.66119395144954
H           -1.80436806228354       -3.19383778154664        2.82014589643044
H           -3.60593953926216       -4.55633206052296        1.90739728955203
H           -5.29736038228912       -4.97157832633105        0.16457631604577
H           -5.53919120947717       -3.40209101785600       -1.71999838379455
H           -4.14586606875171       -1.39453939322276       -1.85444692520239
H            0.58138544330808        2.24362981476209        1.70497748201394
H           -1.12055717836574        2.02968076932676        2.14350286544343
H            0.11287717251347        0.93357199150556        2.79797160151735
H            1.68756394954968        4.93271281601643        0.61210353148451
H            0.43540812092145        6.06295363452641        2.41696214157417
H           -2.02219093327126        5.88038663867752        2.51451377708427
H           -3.23429690969481        4.57167066494272        0.80408923305016
H           -1.98195340479271        3.43804693745351       -0.99263694425920
H            0.13184158255916       -2.18863627456987       -1.01370926892284
H            0.88149213218552       -2.84699283372390        0.43862388473582
H            1.74621513950603       -2.91017495581753       -1.11469897007594
H            2.86234392936920        0.20733933005215        0.86442775727616
H            2.32352013751331       -1.79711132960418        2.27865301174958
H            4.58464803140683       -1.65463184564493        3.32511078728965
H            4.05024236582052       -0.06634750688831        2.77554115465866
H            6.39908581207349       -0.46333026166276        2.12011339425933
H            6.94835203384829       -2.29115130732461        0.52507344182057
H            6.30158896968342       -2.94404269054449        2.02968097755562
H            5.23963527533789       -4.04106251641424        0.07360416256130
H            2.90482658647322       -3.68846019898448        0.74122645754982
H            3.93089698915713       -3.68299157546092        2.16564021288783
H            3.82241063388758       -2.71723156320200       -1.46524141802608
H            5.48294493422215       -2.14249468559884       -1.51320127192346
H            3.92066199493152       -0.22423705740666       -1.36960214873202
H            6.18743055317094       -0.08991485050575       -0.33079310607588
H            5.01675821728445        0.88134443677410        0.56130543996416
