      -----------------------------------------------------------      
     |                   =====================                   |     
     |                           x T B                           |     
     |                   =====================                   |     
     |                         S. Grimme                         |     
     |          Mulliken Center for Theoretical Chemistry        |     
     |                    University of Bonn                     |     
      -----------------------------------------------------------      

   * xtb version 6.7.1 (edcfbbe) compiled by 'conda@3ef47c1a292c' on 2024-11-25

   xtb is free software: you can redistribute it and/or modify it under
   the terms of the GNU Lesser General Public License as published by
   the Free Software Foundation, either version 3 of the License, or
   (at your option) any later version.
   
   xtb is distributed in the hope that it will be useful,
   but WITHOUT ANY WARRANTY; without even the implied warranty of
   MERCHANTABILITY or FITNESS FOR A PARTICULAR PURPOSE.  See the
   GNU Lesser General Public License for more details.
   
   Cite this work as:
   * C. Bannwarth, E. Caldeweyher, S. Ehlert, A. Hansen, P. Pracht,
     J. Seibert, S. Spicher, S. Grimme, WIREs Comput. Mol. Sci., 2020, 11,
     e01493. DOI: 10.1002/wcms.1493
   
   for GFN2-xTB:
   * C. Bannwarth, S. Ehlert and S. Grimme., J. Chem. Theory Comput., 2019,
     15, 1652-1671. DOI: 10.1021/acs.jctc.8b01176
   for GFN1-xTB:
   * S. Grimme, C. Bannwarth, P. Shushkov, J. Chem. Theory Comput., 2017,
     13, 1989-2009. DOI: 10.1021/acs.jctc.7b00118
   for GFN0-xTB:
   * P. Pracht, E. Caldeweyher, S. Ehlert, S. Grimme, ChemRxiv, 2019, preprint.
     DOI: 10.26434/chemrxiv.8326202.v1
   for GFN-FF:
   * S. Spicher and S. Grimme, Angew. Chem. Int. Ed., 2020, 59, 15665-15673.
     DOI: 10.1002/anie.202004239
   
   for ALPB and GBSA implicit solvation:
   * S. Ehlert, M. Stahn, S. Spicher, S. Grimme, J. Chem. Theory Comput.,
     2021, 17, 4250-4261. DOI: 10.1021/acs.jctc.1c00471
   
   for ddCOSMO and CPCM-X implicit solvation:
   * M. Stahn, S. Ehlert, S. Grimme, J. Phys. Chem. A,
     2023, XX, XXXX-XXXX. DOI: 10.1021/acs.jpca.3c04382
   
   for DFT-D4:
   * E. Caldeweyher, C. Bannwarth and S. Grimme, J. Chem. Phys., 2017,
     147, 034112. DOI: 10.1063/1.4993215
   * E. Caldeweyher, S. Ehlert, A. Hansen, H. Neugebauer, S. Spicher,
     C. Bannwarth and S. Grimme, J. Chem. Phys., 2019, 150, 154122.
     DOI: 10.1063/1.5090222
   * E. Caldeweyher, J.-M. Mewes, S. Ehlert and S. Grimme, Phys. Chem. Chem. Phys.
     2020, 22, 8499-8512. DOI: 10.1039/D0CP00502A
   
   for sTDA-xTB:
   * S. Grimme and C. Bannwarth, J. Chem. Phys., 2016, 145, 054103.
     DOI: 10.1063/1.4959605
   
   in the mass-spec context:
   * V. Asgeirsson, C. Bauer and S. Grimme, Chem. Sci., 2017, 8, 4879.
     DOI: 10.1039/c7sc00601b
   * J. Koopman and S. Grimme, ACS Omega 2019, 4, 12, 15120-15133.
     DOI: 10.1021/acsomega.9b02011
   
   for metadynamics refer to:
   * S. Grimme, J. Chem. Theory Comput., 2019, 155, 2847-2862
     DOI: 10.1021/acs.jctc.9b00143
   
   for SPH calculations refer to:
   * S. Spicher and S. Grimme, J. Chem. Theory Comput., 2021, 17, 1701-1714
     DOI: 10.1021/acs.jctc.0c01306
   
   for ONIOM refer to:
   * C. Plett, A. Katbashev, S. Ehlert, S. Grimme, M. Bursch,
     Phys. Chem. Chem. Phys., 2023, 25, 17860-17868. DOI: 10.1039/D3CP02178E
   
   for DIPRO refer to:
   * J. Kohn, N. Gildemeister, S. Grimme, D. Fazzi, A. Hansen,
     J. Chem. Phys., 2023, just accepted.
   
   for PTB refer to:
   * S. Grimme, M. Mueller, A. Hansen, J. Chem. Phys., 2023, 158, 124111.
     DOI: 10.1063/5.0137838
   
   with help from (in alphabetical order)
   P. Atkinson, C. Bannwarth, F. Bohle, G. Brandenburg, E. Caldeweyher
   M. Checinski, S. Dohm, S. Ehlert, S. Ehrlich, I. Gerasimov, C. Hölzer
   A. Katbashev, J. Kohn, J. Koopman, C. Lavigne, S. Lehtola, F. März, M. Müller,
   F. Musil, H. Neugebauer, J. Pisarek, C. Plett, P. Pracht, F. Pultar,
   J. Seibert, P. Shushkov, S. Spicher, M. Stahn, M. Steiner, T. Strunk,
   J. Stückrath, T. Rose, and J. Unsleber
   
 * started run on 2024/12/16 at 20:54:30.666     
   ID    Z sym.   atoms
    1    6 C      1-5, 10-15, 17-33, 35, 36
    2   16 S      6, 7
    3   15 P      8
    4    7 N      9
    5    8 O      16, 34
    6    1 H      37-71

           -------------------------------------------------
          |                Calculation Setup                |
           -------------------------------------------------

          program call               : xtb --gfn2 --opt extreme -P 8 --charge 1 molecule.xyz
          hostname                   : node20
          coordinate file            : molecule.xyz
          omp threads                :                     8


           -------------------------------------------------
          |                 G F N 2 - x T B                 |
           -------------------------------------------------

        Reference                      10.1021/acs.jctc.8b01176
      * Hamiltonian:
        H0-scaling (s, p, d)           1.850000    2.230000    2.230000
        zeta-weighting                 0.500000
      * Dispersion:
        s8                             2.700000
        a1                             0.520000
        a2                             5.000000
        s9                             5.000000
      * Repulsion:
        kExp                           1.500000    1.000000
        rExp                           1.000000
      * Coulomb:
        alpha                          2.000000
        third order                    shell-resolved
        anisotropic                    true
        a3                             3.000000
        a5                             4.000000
        cn-shift                       1.200000
        cn-exp                         4.000000
        max-rad                        5.000000


          ...................................................
          :                      SETUP                      :
          :.................................................:
          :  # basis functions                 197          :
          :  # atomic orbitals                 194          :
          :  # shells                          110          :
          :  # electrons                       188          :
          :  max. iterations                   250          :
          :  Hamiltonian                  GFN2-xTB          :
          :  restarted?                      false          :
          :  GBSA solvation                  false          :
          :  PC potential                    false          :
          :  electronic temp.          300.0000000     K    :
          :  accuracy                    1.0000000          :
          :  -> integral cutoff          0.2500000E+02      :
          :  -> integral neglect         0.1000000E-07      :
          :  -> SCF convergence          0.1000000E-05 Eh   :
          :  -> wf. convergence          0.1000000E-03 e    :
          :  Broyden damping             0.4000000          :
          :  net charge                          1          :
          :  unpaired electrons                  0          :
          ...................................................

 iter      E             dE          RMSdq      gap      omega  full diag
   1   -103.2246081 -0.103225E+03  0.439E+00    2.68       0.0  T
   2   -103.3591823 -0.134574E+00  0.257E+00    2.75       1.0  T
   3   -103.3675349 -0.835263E-02  0.111E+00    2.53       1.0  T
   4   -103.3808209 -0.132860E-01  0.443E-01    2.44       1.0  T
   5   -103.3835994 -0.277852E-02  0.196E-01    2.48       1.0  T
   6   -103.3845033 -0.903948E-03  0.702E-02    2.49       1.0  T
   7   -103.3845374 -0.340961E-04  0.292E-02    2.49       1.0  T
   8   -103.3845491 -0.116914E-04  0.142E-02    2.50       1.0  T
   9   -103.3845524 -0.327950E-05  0.748E-03    2.50       1.6  T
  10   -103.3845537 -0.129706E-05  0.282E-03    2.50       4.2  T
  11   -103.3845539 -0.170388E-06  0.137E-03    2.50       8.7  T
  12   -103.3845539 -0.216718E-07  0.710E-04    2.50      16.7  T
  13   -103.3845539 -0.570749E-08  0.339E-04    2.50      35.0  T

   *** convergence criteria satisfied after 13 iterations ***

         #    Occupation            Energy/Eh            Energy/eV
      -------------------------------------------------------------
         1        2.0000           -0.8792991             -23.9269
       ...           ...                  ...                  ...
        88        2.0000           -0.5115482             -13.9199
        89        2.0000           -0.5100081             -13.8780
        90        2.0000           -0.5058234             -13.7642
        91        2.0000           -0.5038475             -13.7104
        92        2.0000           -0.4990961             -13.5811
        93        2.0000           -0.4884350             -13.2910
        94        2.0000           -0.4864382             -13.2367 (HOMO)
        95                         -0.3947137             -10.7407 (LUMO)
        96                         -0.3629532              -9.8765
        97                         -0.3411408              -9.2829
        98                         -0.3375614              -9.1855
        99                         -0.3340254              -9.0893
       ...                                ...                  ...
       194                          1.0141834              27.5973
      -------------------------------------------------------------
                  HL-Gap            0.0917244 Eh            2.4959 eV
             Fermi-level           -0.4405759 Eh          -11.9887 eV

 SCC (total)                   0 d,  0 h,  0 min,  2.043 sec
 SCC setup                      ...        0 min,  0.000 sec (  0.012%)
 Dispersion                     ...        0 min,  0.001 sec (  0.044%)
 classical contributions        ...        0 min,  0.000 sec (  0.004%)
 integral evaluation            ...        0 min,  0.010 sec (  0.480%)
 iterations                     ...        0 min,  1.899 sec ( 92.946%)
 molecular gradient             ...        0 min,  0.124 sec (  6.063%)
 printout                       ...        0 min,  0.009 sec (  0.452%)

         :::::::::::::::::::::::::::::::::::::::::::::::::::::
         ::                     SUMMARY                     ::
         :::::::::::::::::::::::::::::::::::::::::::::::::::::
         :: total energy            -101.940591506016 Eh    ::
         :: gradient norm              0.111950837007 Eh/a0 ::
         :: HOMO-LUMO gap              2.495948013730 eV    ::
         ::.................................................::
         :: SCC energy              -103.379744036712 Eh    ::
         :: -> isotropic ES            0.103633874059 Eh    ::
         :: -> anisotropic ES         -0.001646481939 Eh    ::
         :: -> anisotropic XC          0.055269514582 Eh    ::
         :: -> dispersion             -0.102382600752 Eh    ::
         :: repulsion energy           1.439152530696 Eh    ::
         :: add. restraining           0.000000000000 Eh    ::
         :: total charge               1.000000000000 e     ::
         :::::::::::::::::::::::::::::::::::::::::::::::::::::

      ----------------------------------------------------------- 
     |                   =====================                   |
     |                        A N C O P T                        |
     |                   =====================                   |
     |               Approximate Normal Coordinate               |
     |                Rational Function Optimizer                |
      ----------------------------------------------------------- 
      ----------------------------------------------------------- 
     |                   =====================                   |
     |                        A N C O P T                        |
     |                   =====================                   |
     |               Approximate Normal Coordinate               |
     |                Rational Function Optimizer                |
      ----------------------------------------------------------- 

          ...................................................
          :                      SETUP                      :
          :.................................................:
          :   optimization level           extreme          :
          :   max. optcycles                  1420          :
          :   ANC micro-cycles                  20          :
          :   degrees of freedom               207          :
          :.................................................:
          :   RF solver                   davidson          :
          :   write xtbopt.log                true          :
          :   linear?                        false          :
          :   energy convergence         0.5000000E-07 Eh   :
          :   grad. convergence          0.5000000E-04 Eh/α :
          :   maxmium RF displ.          1.0000000          :
          :   Hlow (freq-cutoff)         0.1000000E-01      :
          :   Hmax (freq-cutoff)         5.0000000          :
          :   S6 in model hess.         20.0000000          :
          ...................................................

generating ANC from exact Hessian ...
Using Lindh-Hessian (1995)
 Shifting diagonal of input Hessian by    9.9161607862338335E-003
 Lowest  eigenvalues of input Hessian
    0.000000    0.000000    0.000000    0.000000    0.000000    0.000000
    0.010000    0.010072    0.010239    0.010334    0.010359    0.010544
    0.010818    0.011182    0.011393    0.011702    0.011818    0.011973
 Highest eigenvalues
    1.911703    1.939873    2.002348    2.020583    2.115743    2.128296


........................................................................
.............................. CYCLE    1 ..............................
........................................................................

 iter      E             dE          RMSdq      gap      omega  full diag
   1   -103.3845539 -0.103385E+03  0.189E-04    2.50       0.0  T
   2   -103.3845539 -0.393825E-09  0.136E-04    2.50      87.1  T
   3   -103.3845539 -0.406530E-09  0.101E-04    2.50     117.7  T
     SCC iter.                  ...        0 min,  0.270 sec
     gradient                   ...        0 min,  0.109 sec
 * total energy  :  -101.9405915 Eh     change       -0.1330477E-08 Eh
   gradient norm :     0.1119521 Eh/α   predicted     0.0000000E+00 (-100.00%)
   displ. norm   :     0.3960115 α      lambda       -0.2150700E-01
   maximum displ.:     0.1336289 α      in ANC's #17, #40, #30, ...

........................................................................
.............................. CYCLE    2 ..............................
........................................................................

 iter      E             dE          RMSdq      gap      omega  full diag
   1   -103.4415356 -0.103442E+03  0.292E-01    2.64       0.0  T
   2   -103.4419112 -0.375575E-03  0.166E-01    2.67       1.0  T
   3   -103.4418157  0.955061E-04  0.761E-02    2.67       1.0  T
   4   -103.4420307 -0.214976E-03  0.288E-02    2.67       1.0  T
   5   -103.4420476 -0.169592E-04  0.120E-02    2.67       1.0  T
   6   -103.4420490 -0.136370E-05  0.608E-03    2.67       2.0  T
   7   -103.4420500 -0.100619E-05  0.327E-03    2.67       3.6  T
   8   -103.4420501 -0.133030E-06  0.197E-03    2.67       6.0  T
   9   -103.4420501 -0.246712E-07  0.917E-04    2.67      12.9  T
  10   -103.4420502 -0.138431E-07  0.448E-04    2.67      26.5  T
     SCC iter.                  ...        0 min,  1.331 sec
     gradient                   ...        0 min,  0.115 sec
 * total energy  :  -101.9547602 Eh     change       -0.1416866E-01 Eh
   gradient norm :     0.0563149 Eh/α   predicted    -0.1245695E-01 ( -12.08%)
   displ. norm   :     0.3554121 α      lambda       -0.7151245E-02
   maximum displ.:     0.1072333 α      in ANC's #33, #36, #20, ...

........................................................................
.............................. CYCLE    3 ..............................
........................................................................

 iter      E             dE          RMSdq      gap      omega  full diag
   1   -103.4763907 -0.103476E+03  0.156E-01    2.73       0.0  T
   2   -103.4764909 -0.100169E-03  0.860E-02    2.73       1.0  T
   3   -103.4764620  0.288992E-04  0.426E-02    2.73       1.0  T
   4   -103.4765352 -0.731673E-04  0.152E-02    2.73       1.0  T
   5   -103.4765376 -0.247011E-05  0.538E-03    2.73       2.2  T
   6   -103.4765381 -0.461491E-06  0.271E-03    2.73       4.4  T
   7   -103.4765383 -0.200215E-06  0.127E-03    2.73       9.4  T
   8   -103.4765383 -0.246826E-07  0.697E-04    2.73      17.0  T
   9   -103.4765383 -0.545408E-08  0.311E-04    2.73      38.2  T
     SCC iter.                  ...        0 min,  1.207 sec
     gradient                   ...        0 min,  0.111 sec
 * total energy  :  -101.9589484 Eh     change       -0.4188267E-02 Eh
   gradient norm :     0.0274414 Eh/α   predicted    -0.4027303E-02 (  -3.84%)
   displ. norm   :     0.3162023 α      lambda       -0.2442270E-02
   maximum displ.:     0.1101034 α      in ANC's #18, #17, #14, ...

........................................................................
.............................. CYCLE    4 ..............................
........................................................................

 iter      E             dE          RMSdq      gap      omega  full diag
   1   -103.4803800 -0.103480E+03  0.115E-01    2.75       0.0  T
   2   -103.4804149 -0.349341E-04  0.658E-02    2.76       1.0  T
   3   -103.4804077  0.722365E-05  0.227E-02    2.76       1.0  T
   4   -103.4804186 -0.108367E-04  0.958E-03    2.76       1.2  T
   5   -103.4804219 -0.335863E-05  0.465E-03    2.76       2.5  T
   6   -103.4804220 -0.803693E-07  0.253E-03    2.76       4.7  T
   7   -103.4804221 -0.622667E-07  0.150E-03    2.76       7.9  T
   8   -103.4804221 -0.189376E-07  0.736E-04    2.76      16.1  T
   9   -103.4804221 -0.724503E-08  0.343E-04    2.76      34.6  T
     SCC iter.                  ...        0 min,  1.108 sec
     gradient                   ...        0 min,  0.111 sec
 * total energy  :  -101.9604552 Eh     change       -0.1506795E-02 Eh
   gradient norm :     0.0138950 Eh/α   predicted    -0.1343230E-02 ( -10.86%)
   displ. norm   :     0.3151157 α      lambda       -0.1242340E-02
   maximum displ.:     0.1250344 α      in ANC's #15, #14, #13, ...

........................................................................
.............................. CYCLE    5 ..............................
........................................................................

 iter      E             dE          RMSdq      gap      omega  full diag
   1   -103.4779096 -0.103478E+03  0.850E-02    2.75       0.0  T
   2   -103.4779243 -0.146811E-04  0.441E-02    2.75       1.0  T
   3   -103.4779235  0.798244E-06  0.132E-02    2.74       1.0  T
   4   -103.4779238 -0.346836E-06  0.866E-03    2.74       1.4  T
   5   -103.4779270 -0.316675E-05  0.252E-03    2.74       4.7  T
   6   -103.4779271 -0.128575E-06  0.102E-03    2.74      11.7  T
   7   -103.4779271 -0.177444E-07  0.554E-04    2.74      21.4  T
   8   -103.4779271 -0.171352E-08  0.302E-04    2.74      39.3  T
     SCC iter.                  ...        0 min,  0.934 sec
     gradient                   ...        0 min,  0.117 sec
 * total energy  :  -101.9612892 Eh     change       -0.8339390E-03 Eh
   gradient norm :     0.0079762 Eh/α   predicted    -0.6828653E-03 ( -18.12%)
   displ. norm   :     0.2797716 α      lambda       -0.5602733E-03
   maximum displ.:     0.1232159 α      in ANC's #15, #13, #7, ...

........................................................................
.............................. CYCLE    6 ..............................
........................................................................

 iter      E             dE          RMSdq      gap      omega  full diag
   1   -103.4757180 -0.103476E+03  0.590E-02    2.74       0.0  T
   2   -103.4757247 -0.665722E-05  0.313E-02    2.73       1.0  T
   3   -103.4757225  0.213174E-05  0.101E-02    2.73       1.2  T
   4   -103.4757255 -0.292452E-05  0.591E-03    2.73       2.0  T
   5   -103.4757265 -0.101505E-05  0.141E-03    2.73       8.4  T
   6   -103.4757265 -0.463568E-07  0.693E-04    2.73      17.1  T
   7   -103.4757266 -0.176570E-07  0.338E-04    2.73      35.1  T
     SCC iter.                  ...        0 min,  0.983 sec
     gradient                   ...        0 min,  0.112 sec
 * total energy  :  -101.9616880 Eh     change       -0.3988686E-03 Eh
   gradient norm :     0.0080074 Eh/α   predicted    -0.3020642E-03 ( -24.27%)
   displ. norm   :     0.2831846 α      lambda       -0.3687670E-03
   maximum displ.:     0.1214690 α      in ANC's #15, #13, #7, ...

........................................................................
.............................. CYCLE    7 ..............................
........................................................................

 iter      E             dE          RMSdq      gap      omega  full diag
   1   -103.4751845 -0.103475E+03  0.515E-02    2.73       0.0  T
   2   -103.4751888 -0.429666E-05  0.275E-02    2.72       1.0  T
   3   -103.4751866  0.213194E-05  0.908E-03    2.72       1.3  T
   4   -103.4751896 -0.296281E-05  0.443E-03    2.72       2.7  T
   5   -103.4751900 -0.417332E-06  0.106E-03    2.72      11.2  T
   6   -103.4751900 -0.181293E-07  0.463E-04    2.72      25.7  T
   7   -103.4751900 -0.414721E-08  0.280E-04    2.72      42.3  T
     SCC iter.                  ...        0 min,  0.701 sec
     gradient                   ...        0 min,  0.111 sec
 * total energy  :  -101.9619511 Eh     change       -0.2631095E-03 Eh
   gradient norm :     0.0070328 Eh/α   predicted    -0.1991700E-03 ( -24.30%)
   displ. norm   :     0.2433026 α      lambda       -0.2274746E-03
   maximum displ.:     0.0979441 α      in ANC's #7, #13, #15, ...

........................................................................
.............................. CYCLE    8 ..............................
........................................................................

 iter      E             dE          RMSdq      gap      omega  full diag
   1   -103.4762053 -0.103476E+03  0.494E-02    2.72       0.0  T
   2   -103.4762090 -0.370777E-05  0.244E-02    2.72       1.0  T
   3   -103.4762082  0.873643E-06  0.746E-03    2.72       1.6  T
   4   -103.4762094 -0.129016E-05  0.402E-03    2.72       2.9  T
   5   -103.4762098 -0.379020E-06  0.980E-04    2.72      12.1  T
   6   -103.4762098 -0.201287E-07  0.369E-04    2.72      32.1  T
     SCC iter.                  ...        0 min,  0.701 sec
     gradient                   ...        0 min,  0.115 sec
 * total energy  :  -101.9621080 Eh     change       -0.1568171E-03 Eh
   gradient norm :     0.0043137 Eh/α   predicted    -0.1204704E-03 ( -23.18%)
   displ. norm   :     0.1555733 α      lambda       -0.1033349E-03
   maximum displ.:     0.0661532 α      in ANC's #7, #4, #13, ...

........................................................................
.............................. CYCLE    9 ..............................
........................................................................

 iter      E             dE          RMSdq      gap      omega  full diag
   1   -103.4775652 -0.103478E+03  0.350E-02    2.72       0.0  T
   2   -103.4775671 -0.195331E-05  0.174E-02    2.72       1.0  T
   3   -103.4775668  0.302659E-06  0.537E-03    2.72       2.2  T
   4   -103.4775673 -0.455331E-06  0.272E-03    2.72       4.4  T
   5   -103.4775675 -0.194685E-06  0.902E-04    2.72      13.2  T
   6   -103.4775675 -0.350781E-07  0.279E-04    2.72      42.5  T
     SCC iter.                  ...        0 min,  0.702 sec
     gradient                   ...        0 min,  0.114 sec
 * total energy  :  -101.9621780 Eh     change       -0.6998902E-04 Eh
   gradient norm :     0.0021355 Eh/α   predicted    -0.5291928E-04 ( -24.39%)
   displ. norm   :     0.0992800 α      lambda       -0.4502538E-04
   maximum displ.:     0.0475428 α      in ANC's #4, #7, #6, ...

........................................................................
.............................. CYCLE   10 ..............................
........................................................................

 iter      E             dE          RMSdq      gap      omega  full diag
   1   -103.4783605 -0.103478E+03  0.231E-02    2.72       0.0  T
   2   -103.4783612 -0.718811E-06  0.117E-02    2.72       1.0  T
   3   -103.4783611  0.698146E-07  0.340E-03    2.72       3.5  T
   4   -103.4783612 -0.114471E-06  0.172E-03    2.72       6.9  T
   5   -103.4783613 -0.760940E-07  0.509E-04    2.72      23.3  T
   6   -103.4783613 -0.104648E-07  0.160E-04    2.72      74.4  T
     SCC iter.                  ...        0 min,  0.806 sec
     gradient                   ...        0 min,  0.122 sec
 * total energy  :  -101.9622102 Eh     change       -0.3222592E-04 Eh
   gradient norm :     0.0017670 Eh/α   predicted    -0.2274320E-04 ( -29.43%)
   displ. norm   :     0.1391120 α      lambda       -0.3161075E-04
   maximum displ.:     0.0734171 α      in ANC's #4, #7, #3, ...

........................................................................
.............................. CYCLE   11 ..............................
........................................................................

 iter      E             dE          RMSdq      gap      omega  full diag
   1   -103.4787288 -0.103479E+03  0.272E-02    2.71       0.0  T
   2   -103.4787294 -0.683437E-06  0.148E-02    2.71       1.0  T
   3   -103.4787292  0.251112E-06  0.393E-03    2.71       3.0  T
   4   -103.4787295 -0.325238E-06  0.178E-03    2.71       6.7  T
   5   -103.4787296 -0.779882E-07  0.481E-04    2.71      24.7  T
   6   -103.4787296 -0.619499E-08  0.173E-04    2.71      68.6  T
     SCC iter.                  ...        0 min,  0.721 sec
     gradient                   ...        0 min,  0.111 sec
 * total energy  :  -101.9622393 Eh     change       -0.2907671E-04 Eh
   gradient norm :     0.0022085 Eh/α   predicted    -0.1594555E-04 ( -45.16%)
   displ. norm   :     0.0549802 α      lambda       -0.1737456E-04
   maximum displ.:     0.0315845 α      in ANC's #4, #3, #7, ...

........................................................................
.............................. CYCLE   12 ..............................
........................................................................

 iter      E             dE          RMSdq      gap      omega  full diag
   1   -103.4785732 -0.103479E+03  0.979E-03    2.71       0.0  T
   2   -103.4785733 -0.875013E-07  0.524E-03    2.71       2.3  T
   3   -103.4785733  0.279672E-07  0.129E-03    2.71       9.2  T
   4   -103.4785733 -0.281918E-07  0.644E-04    2.71      18.4  T
   5   -103.4785733 -0.185252E-07  0.182E-04    2.71      65.3  T
     SCC iter.                  ...        0 min,  0.646 sec
     gradient                   ...        0 min,  0.111 sec
 * total energy  :  -101.9622543 Eh     change       -0.1502185E-04 Eh
   gradient norm :     0.0016067 Eh/α   predicted    -0.8716250E-05 ( -41.98%)
   displ. norm   :     0.1790822 α      lambda       -0.3266571E-04
   maximum displ.:     0.1013139 α      in ANC's #4, #3, #2, ...

........................................................................
.............................. CYCLE   13 ..............................
........................................................................

 iter      E             dE          RMSdq      gap      omega  full diag
   1   -103.4779896 -0.103478E+03  0.296E-02    2.71       0.0  T
   2   -103.4779903 -0.666860E-06  0.162E-02    2.71       1.0  T
   3   -103.4779900  0.264383E-06  0.359E-03    2.71       3.3  T
   4   -103.4779903 -0.287795E-06  0.162E-03    2.71       7.3  T
   5   -103.4779905 -0.134870E-06  0.527E-04    2.71      22.5  T
   6   -103.4779905 -0.379879E-08  0.283E-04    2.71      42.0  T
     SCC iter.                  ...        0 min,  0.642 sec
     gradient                   ...        0 min,  0.109 sec
 * total energy  :  -101.9622815 Eh     change       -0.2721397E-04 Eh
   gradient norm :     0.0015651 Eh/α   predicted    -0.1656863E-04 ( -39.12%)
   displ. norm   :     0.0713381 α      lambda       -0.8788564E-05
   maximum displ.:     0.0435498 α      in ANC's #4, #3, #2, ...

........................................................................
.............................. CYCLE   14 ..............................
........................................................................

 iter      E             dE          RMSdq      gap      omega  full diag
   1   -103.4781807 -0.103478E+03  0.980E-03    2.71       0.0  T
   2   -103.4781808 -0.732495E-07  0.529E-03    2.71       2.2  T
   3   -103.4781807  0.373246E-07  0.126E-03    2.71       9.4  T
   4   -103.4781808 -0.347353E-07  0.679E-04    2.71      17.5  T
   5   -103.4781808 -0.206147E-07  0.124E-04    2.71      95.5  T
     SCC iter.                  ...        0 min,  0.658 sec
     gradient                   ...        0 min,  0.115 sec
 * total energy  :  -101.9622926 Eh     change       -0.1114862E-04 Eh
   gradient norm :     0.0011774 Eh/α   predicted    -0.4406194E-05 ( -60.48%)
   displ. norm   :     0.1362461 α      lambda       -0.1838318E-04
   maximum displ.:     0.0786423 α      in ANC's #4, #3, #2, ...

........................................................................
.............................. CYCLE   15 ..............................
........................................................................

 iter      E             dE          RMSdq      gap      omega  full diag
   1   -103.4786519 -0.103479E+03  0.177E-02    2.71       0.0  T
   2   -103.4786522 -0.326722E-06  0.995E-03    2.71       1.2  T
   3   -103.4786520  0.227374E-06  0.277E-03    2.71       4.3  T
   4   -103.4786523 -0.286461E-06  0.102E-03    2.71      11.6  T
   5   -103.4786523 -0.141402E-07  0.453E-04    2.71      26.2  T
   6   -103.4786523 -0.113129E-07  0.972E-05    2.71     122.1  T
     SCC iter.                  ...        0 min,  0.743 sec
     gradient                   ...        0 min,  0.111 sec
 * total energy  :  -101.9623127 Eh     change       -0.2005219E-04 Eh
   gradient norm :     0.0008366 Eh/α   predicted    -0.9268452E-05 ( -53.78%)
   displ. norm   :     0.1647372 α      lambda       -0.1511400E-04
   maximum displ.:     0.0953447 α      in ANC's #4, #3, #2, ...

........................................................................
.............................. CYCLE   16 ..............................
........................................................................

 iter      E             dE          RMSdq      gap      omega  full diag
   1   -103.4786527 -0.103479E+03  0.193E-02    2.71       0.0  T
   2   -103.4786529 -0.153964E-06  0.111E-02    2.71       1.1  T
   3   -103.4786526  0.240226E-06  0.215E-03    2.71       5.5  T
   4   -103.4786529 -0.277442E-06  0.804E-04    2.71      14.8  T
   5   -103.4786529 -0.218146E-07  0.215E-04    2.71      55.3  T
     SCC iter.                  ...        0 min,  0.535 sec
     gradient                   ...        0 min,  0.119 sec
 * total energy  :  -101.9623299 Eh     change       -0.1719915E-04 Eh
   gradient norm :     0.0012323 Eh/α   predicted    -0.7650018E-05 ( -55.52%)
   displ. norm   :     0.1868227 α      lambda       -0.1447212E-04
   maximum displ.:     0.1063763 α      in ANC's #4, #3, #2, ...

........................................................................
.............................. CYCLE   17 ..............................
........................................................................

 iter      E             dE          RMSdq      gap      omega  full diag
   1   -103.4786315 -0.103479E+03  0.225E-02    2.71       0.0  T
   2   -103.4786317 -0.219023E-06  0.127E-02    2.71       1.0  T
   3   -103.4786313  0.353873E-06  0.281E-03    2.71       4.2  T
   4   -103.4786318 -0.412024E-06  0.103E-03    2.71      11.5  T
   5   -103.4786318 -0.315663E-07  0.292E-04    2.71      40.7  T
   6   -103.4786318 -0.325733E-08  0.105E-04    2.71     112.6  T
     SCC iter.                  ...        0 min,  0.618 sec
     gradient                   ...        0 min,  0.114 sec
 * total energy  :  -101.9623477 Eh     change       -0.1779782E-04 Eh
   gradient norm :     0.0011753 Eh/α   predicted    -0.7349750E-05 ( -58.70%)
   displ. norm   :     0.2516172 α      lambda       -0.1807402E-04
   maximum displ.:     0.1412003 α      in ANC's #4, #3, #2, ...

........................................................................
.............................. CYCLE   18 ..............................
........................................................................

 iter      E             dE          RMSdq      gap      omega  full diag
   1   -103.4783706 -0.103478E+03  0.300E-02    2.71       0.0  T
   2   -103.4783710 -0.362630E-06  0.172E-02    2.71       1.0  T
   3   -103.4783703  0.739007E-06  0.376E-03    2.71       3.2  T
   4   -103.4783711 -0.851686E-06  0.128E-03    2.71       9.3  T
   5   -103.4783712 -0.519649E-07  0.387E-04    2.71      30.7  T
   6   -103.4783712 -0.364473E-08  0.158E-04    2.71      75.3  T
     SCC iter.                  ...        0 min,  0.687 sec
     gradient                   ...        0 min,  0.112 sec
 * total energy  :  -101.9623681 Eh     change       -0.2038764E-04 Eh
   gradient norm :     0.0008153 Eh/α   predicted    -0.9292408E-05 ( -54.42%)
   displ. norm   :     0.2225429 α      lambda       -0.1340323E-04
   maximum displ.:     0.1201407 α      in ANC's #4, #2, #3, ...

........................................................................
.............................. CYCLE   19 ..............................
........................................................................

 iter      E             dE          RMSdq      gap      omega  full diag
   1   -103.4784994 -0.103478E+03  0.262E-02    2.71       0.0  T
   2   -103.4784997 -0.315087E-06  0.150E-02    2.71       1.0  T
   3   -103.4784992  0.539062E-06  0.331E-03    2.71       3.6  T
   4   -103.4784998 -0.623131E-06  0.116E-03    2.71      10.2  T
   5   -103.4784999 -0.442766E-07  0.378E-04    2.71      31.4  T
   6   -103.4784999 -0.368289E-08  0.141E-04    2.71      83.9  T
     SCC iter.                  ...        0 min,  0.811 sec
     gradient                   ...        0 min,  0.114 sec
 * total energy  :  -101.9623819 Eh     change       -0.1380864E-04 Eh
   gradient norm :     0.0007443 Eh/α   predicted    -0.6850121E-05 ( -50.39%)
   displ. norm   :     0.1407341 α      lambda       -0.8102688E-05
   maximum displ.:     0.0738342 α      in ANC's #2, #4, #3, ...

........................................................................
.............................. CYCLE   20 ..............................
........................................................................

 iter      E             dE          RMSdq      gap      omega  full diag
   1   -103.4783245 -0.103478E+03  0.170E-02    2.71       0.0  T
   2   -103.4783247 -0.143988E-06  0.969E-03    2.71       1.2  T
   3   -103.4783245  0.175834E-06  0.204E-03    2.71       5.8  T
   4   -103.4783247 -0.204900E-06  0.785E-04    2.71      15.1  T
   5   -103.4783247 -0.194094E-07  0.277E-04    2.71      42.9  T
     SCC iter.                  ...        0 min,  0.536 sec
     gradient                   ...        0 min,  0.121 sec
 * total energy  :  -101.9623905 Eh     change       -0.8592674E-05 Eh
   gradient norm :     0.0006626 Eh/α   predicted    -0.4089721E-05 ( -52.40%)
   displ. norm   :     0.0909057 α      lambda       -0.7069983E-05
   maximum displ.:     0.0485301 α      in ANC's #2, #5, #11, ...
 * RMSD in coord.:     0.3083185 α      energy gain  -0.2179897E-01 Eh

generating ANC from exact Hessian ...
Using Lindh-Hessian (1995)
 Shifting diagonal of input Hessian by    9.9030028498154274E-003
 Lowest  eigenvalues of input Hessian
    0.000000    0.000000    0.000000    0.000000    0.000000    0.000000
    0.010000    0.010106    0.010222    0.010353    0.010394    0.010575
    0.010922    0.011334    0.011520    0.011715    0.012068    0.012146
 Highest eigenvalues
    2.016469    2.021431    2.038278    2.048164    2.121721    2.274571


........................................................................
.............................. CYCLE   21 ..............................
........................................................................

 iter      E             dE          RMSdq      gap      omega  full diag
   1   -103.4787939 -0.103479E+03  0.130E-02    2.71       0.0  T
   2   -103.4787939 -0.744977E-07  0.750E-03    2.71       1.6  T
   3   -103.4787939  0.412081E-07  0.120E-03    2.71       9.9  T
   4   -103.4787940 -0.515948E-07  0.488E-04    2.71      24.3  T
   5   -103.4787940 -0.730705E-08  0.174E-04    2.71      68.4  T
     SCC iter.                  ...        0 min,  0.651 sec
     gradient                   ...        0 min,  0.114 sec
 * total energy  :  -101.9623983 Eh     change       -0.7850068E-05 Eh
   gradient norm :     0.0005273 Eh/α   predicted     0.0000000E+00 (-100.00%)
   displ. norm   :     0.0199239 α      lambda       -0.2607644E-06
   maximum displ.:     0.0099068 α      in ANC's #5, #2, #3, ...

........................................................................
.............................. CYCLE   22 ..............................
........................................................................

 iter      E             dE          RMSdq      gap      omega  full diag
   1   -103.4785209 -0.103479E+03  0.435E-03    2.71       0.0  T
   2   -103.4785209 -0.144707E-07  0.240E-03    2.71       4.9  T
   3   -103.4785209  0.654352E-08  0.556E-04    2.71      21.4  T
   4   -103.4785209 -0.555276E-08  0.297E-04    2.71      39.9  T
     SCC iter.                  ...        0 min,  0.468 sec
     gradient                   ...        0 min,  0.113 sec
 * total energy  :  -101.9624016 Eh     change       -0.3271425E-05 Eh
   gradient norm :     0.0002635 Eh/α   predicted    -0.1302574E-05 ( -60.18%)
   displ. norm   :     0.0681163 α      lambda       -0.6402122E-05
   maximum displ.:     0.0330927 α      in ANC's #2, #5, #7, ...

........................................................................
.............................. CYCLE   23 ..............................
........................................................................

 iter      E             dE          RMSdq      gap      omega  full diag
   1   -103.4783073 -0.103478E+03  0.135E-02    2.71       0.0  T
   2   -103.4783074 -0.848962E-07  0.770E-03    2.71       1.5  T
   3   -103.4783073  0.972335E-07  0.155E-03    2.71       7.7  T
   4   -103.4783074 -0.108166E-06  0.675E-04    2.71      17.6  T
   5   -103.4783074 -0.167938E-07  0.224E-04    2.71      53.0  T
     SCC iter.                  ...        0 min,  0.520 sec
     gradient                   ...        0 min,  0.116 sec
 * total energy  :  -101.9624082 Eh     change       -0.6618176E-05 Eh
   gradient norm :     0.0005415 Eh/α   predicted    -0.3208038E-05 ( -51.53%)
   displ. norm   :     0.0707960 α      lambda       -0.4502565E-05
   maximum displ.:     0.0367193 α      in ANC's #2, #5, #3, ...

........................................................................
.............................. CYCLE   24 ..............................
........................................................................

 iter      E             dE          RMSdq      gap      omega  full diag
   1   -103.4783448 -0.103478E+03  0.161E-02    2.71       0.0  T
   2   -103.4783450 -0.215488E-06  0.864E-03    2.70       1.4  T
   3   -103.4783450  0.460250E-07  0.215E-03    2.70       5.5  T
   4   -103.4783450 -0.426427E-07  0.107E-03    2.70      11.1  T
   5   -103.4783450 -0.432127E-07  0.331E-04    2.70      35.8  T
   6   -103.4783450 -0.464793E-08  0.144E-04    2.70      82.3  T
     SCC iter.                  ...        0 min,  0.606 sec
     gradient                   ...        0 min,  0.110 sec
 * total energy  :  -101.9624121 Eh     change       -0.3876420E-05 Eh
   gradient norm :     0.0007157 Eh/α   predicted    -0.2257052E-05 ( -41.77%)
   displ. norm   :     0.0730409 α      lambda       -0.4525848E-05
   maximum displ.:     0.0381324 α      in ANC's #2, #5, #7, ...

........................................................................
.............................. CYCLE   25 ..............................
........................................................................

 iter      E             dE          RMSdq      gap      omega  full diag
   1   -103.4784565 -0.103478E+03  0.150E-02    2.71       0.0  T
   2   -103.4784566 -0.943148E-07  0.858E-03    2.71       1.4  T
   3   -103.4784565  0.742986E-07  0.146E-03    2.71       8.1  T
   4   -103.4784566 -0.806229E-07  0.716E-04    2.71      16.6  T
   5   -103.4784566 -0.196270E-07  0.225E-04    2.71      52.6  T
     SCC iter.                  ...        0 min,  0.481 sec
     gradient                   ...        0 min,  0.115 sec
 * total energy  :  -101.9624160 Eh     change       -0.3921500E-05 Eh
   gradient norm :     0.0006099 Eh/α   predicted    -0.2268557E-05 ( -42.15%)
   displ. norm   :     0.0694769 α      lambda       -0.4410135E-05
   maximum displ.:     0.0384239 α      in ANC's #2, #5, #7, ...

........................................................................
.............................. CYCLE   26 ..............................
........................................................................

 iter      E             dE          RMSdq      gap      omega  full diag
   1   -103.4785736 -0.103479E+03  0.148E-02    2.71       0.0  T
   2   -103.4785738 -0.145217E-06  0.824E-03    2.71       1.4  T
   3   -103.4785738  0.389835E-07  0.168E-03    2.71       7.0  T
   4   -103.4785738 -0.479298E-07  0.876E-04    2.71      13.5  T
   5   -103.4785738 -0.236623E-07  0.322E-04    2.71      36.8  T
     SCC iter.                  ...        0 min,  0.512 sec
     gradient                   ...        0 min,  0.113 sec
 * total energy  :  -101.9624199 Eh     change       -0.3837816E-05 Eh
   gradient norm :     0.0003954 Eh/α   predicted    -0.2210131E-05 ( -42.41%)
   displ. norm   :     0.0499913 α      lambda       -0.3051623E-05
   maximum displ.:     0.0275719 α      in ANC's #2, #5, #7, ...

........................................................................
.............................. CYCLE   27 ..............................
........................................................................

 iter      E             dE          RMSdq      gap      omega  full diag
   1   -103.4786884 -0.103479E+03  0.980E-03    2.71       0.0  T
   2   -103.4786885 -0.443385E-07  0.554E-03    2.71       2.1  T
   3   -103.4786884  0.323812E-07  0.115E-03    2.71      10.3  T
   4   -103.4786885 -0.386847E-07  0.462E-04    2.71      25.7  T
   5   -103.4786885 -0.601815E-08  0.138E-04    2.71      86.3  T
     SCC iter.                  ...        0 min,  0.570 sec
     gradient                   ...        0 min,  0.111 sec
 * total energy  :  -101.9624229 Eh     change       -0.3063045E-05 Eh
   gradient norm :     0.0003075 Eh/α   predicted    -0.1528685E-05 ( -50.09%)
   displ. norm   :     0.0463493 α      lambda       -0.1799255E-05
   maximum displ.:     0.0257638 α      in ANC's #2, #5, #7, ...

........................................................................
.............................. CYCLE   28 ..............................
........................................................................

 iter      E             dE          RMSdq      gap      omega  full diag
   1   -103.4787174 -0.103479E+03  0.791E-03    2.71       0.0  T
   2   -103.4787174 -0.179560E-07  0.462E-03    2.71       2.6  T
   3   -103.4787174  0.313175E-07  0.795E-04    2.71      14.9  T
   4   -103.4787174 -0.370766E-07  0.228E-04    2.71      52.0  T
     SCC iter.                  ...        0 min,  0.419 sec
     gradient                   ...        0 min,  0.115 sec
 * total energy  :  -101.9624249 Eh     change       -0.1982064E-05 Eh
   gradient norm :     0.0003571 Eh/α   predicted    -0.9025395E-06 ( -54.46%)
   displ. norm   :     0.0563743 α      lambda       -0.1951360E-05
   maximum displ.:     0.0304562 α      in ANC's #2, #7, #5, ...

........................................................................
.............................. CYCLE   29 ..............................
........................................................................

 iter      E             dE          RMSdq      gap      omega  full diag
   1   -103.4785911 -0.103479E+03  0.900E-03    2.71       0.0  T
   2   -103.4785911 -0.209105E-07  0.523E-03    2.71       2.3  T
   3   -103.4785910  0.541935E-07  0.964E-04    2.71      12.3  T
   4   -103.4785911 -0.636295E-07  0.260E-04    2.71      45.7  T
     SCC iter.                  ...        0 min,  0.460 sec
     gradient                   ...        0 min,  0.115 sec
 * total energy  :  -101.9624272 Eh     change       -0.2276302E-05 Eh
   gradient norm :     0.0002951 Eh/α   predicted    -0.9782578E-06 ( -57.02%)
   displ. norm   :     0.0746658 α      lambda       -0.2292488E-05
   maximum displ.:     0.0395786 α      in ANC's #2, #4, #7, ...

........................................................................
.............................. CYCLE   30 ..............................
........................................................................

 iter      E             dE          RMSdq      gap      omega  full diag
   1   -103.4784687 -0.103478E+03  0.118E-02    2.71       0.0  T
   2   -103.4784688 -0.427899E-07  0.676E-03    2.71       1.8  T
   3   -103.4784687  0.569776E-07  0.120E-03    2.71       9.9  T
   4   -103.4784688 -0.660517E-07  0.496E-04    2.71      23.9  T
   5   -103.4784688 -0.769738E-08  0.946E-05    2.71     125.5  T
     SCC iter.                  ...        0 min,  0.683 sec
     gradient                   ...        0 min,  0.111 sec
 * total energy  :  -101.9624297 Eh     change       -0.2482259E-05 Eh
   gradient norm :     0.0002369 Eh/α   predicted    -0.1149981E-05 ( -53.67%)
   displ. norm   :     0.0641486 α      lambda       -0.1557037E-05
   maximum displ.:     0.0335864 α      in ANC's #2, #4, #7, ...

........................................................................
.............................. CYCLE   31 ..............................
........................................................................

 iter      E             dE          RMSdq      gap      omega  full diag
   1   -103.4783947 -0.103478E+03  0.993E-03    2.71       0.0  T
   2   -103.4783947 -0.296778E-07  0.566E-03    2.71       2.1  T
   3   -103.4783947  0.322724E-07  0.975E-04    2.71      12.2  T
   4   -103.4783947 -0.382007E-07  0.415E-04    2.71      28.6  T
     SCC iter.                  ...        0 min,  0.427 sec
     gradient                   ...        0 min,  0.111 sec
 * total energy  :  -101.9624314 Eh     change       -0.1716352E-05 Eh
   gradient norm :     0.0002425 Eh/α   predicted    -0.7819669E-06 ( -54.44%)
   displ. norm   :     0.0504230 α      lambda       -0.1216461E-05
   maximum displ.:     0.0260582 α      in ANC's #4, #2, #5, ...

........................................................................
.............................. CYCLE   32 ..............................
........................................................................

 iter      E             dE          RMSdq      gap      omega  full diag
   1   -103.4784317 -0.103478E+03  0.729E-03    2.71       0.0  T
   2   -103.4784318 -0.141897E-07  0.418E-03    2.71       2.8  T
   3   -103.4784317  0.117585E-07  0.637E-04    2.71      18.6  T
   4   -103.4784318 -0.144139E-07  0.279E-04    2.71      42.5  T
     SCC iter.                  ...        0 min,  0.432 sec
     gradient                   ...        0 min,  0.110 sec
 * total energy  :  -101.9624329 Eh     change       -0.1496237E-05 Eh
   gradient norm :     0.0002291 Eh/α   predicted    -0.6118950E-06 ( -59.10%)
   displ. norm   :     0.0588274 α      lambda       -0.1502288E-05
   maximum displ.:     0.0325126 α      in ANC's #4, #2, #21, ...

........................................................................
.............................. CYCLE   33 ..............................
........................................................................

 iter      E             dE          RMSdq      gap      omega  full diag
   1   -103.4784982 -0.103478E+03  0.773E-03    2.71       0.0  T
   2   -103.4784982 -0.155286E-07  0.447E-03    2.71       2.7  T
   3   -103.4784982  0.130382E-07  0.642E-04    2.71      18.5  T
   4   -103.4784982 -0.163363E-07  0.273E-04    2.71      43.5  T
     SCC iter.                  ...        0 min,  0.566 sec
     gradient                   ...        0 min,  0.118 sec
 * total energy  :  -101.9624348 Eh     change       -0.1889519E-05 Eh
   gradient norm :     0.0002325 Eh/α   predicted    -0.7572612E-06 ( -59.92%)
   displ. norm   :     0.0699732 α      lambda       -0.1885584E-05
   maximum displ.:     0.0403577 α      in ANC's #4, #2, #21, ...

........................................................................
.............................. CYCLE   34 ..............................
........................................................................

 iter      E             dE          RMSdq      gap      omega  full diag
   1   -103.4785822 -0.103479E+03  0.817E-03    2.71       0.0  T
   2   -103.4785822 -0.179446E-07  0.476E-03    2.71       2.5  T
   3   -103.4785822  0.302044E-07  0.783E-04    2.71      15.2  T
   4   -103.4785822 -0.363473E-07  0.270E-04    2.71      43.9  T
     SCC iter.                  ...        0 min,  0.413 sec
     gradient                   ...        0 min,  0.109 sec
 * total energy  :  -101.9624371 Eh     change       -0.2340453E-05 Eh
   gradient norm :     0.0002642 Eh/α   predicted    -0.9483280E-06 ( -59.48%)
   displ. norm   :     0.0967878 α      lambda       -0.2442481E-05
   maximum displ.:     0.0560332 α      in ANC's #4, #21, #2, ...

........................................................................
.............................. CYCLE   35 ..............................
........................................................................

 iter      E             dE          RMSdq      gap      omega  full diag
   1   -103.4785932 -0.103479E+03  0.109E-02    2.71       0.0  T
   2   -103.4785932 -0.330634E-07  0.638E-03    2.71       1.9  T
   3   -103.4785931  0.580100E-07  0.107E-03    2.71      11.1  T
   4   -103.4785932 -0.692190E-07  0.371E-04    2.71      32.0  T
   5   -103.4785932 -0.357646E-08  0.133E-04    2.71      89.3  T
     SCC iter.                  ...        0 min,  0.559 sec
     gradient                   ...        0 min,  0.122 sec
 * total energy  :  -101.9624400 Eh     change       -0.2946888E-05 Eh
   gradient norm :     0.0003748 Eh/α   predicted    -0.1230916E-05 ( -58.23%)
   displ. norm   :     0.1329190 α      lambda       -0.2972915E-05
   maximum displ.:     0.0770396 α      in ANC's #4, #21, #3, ...

........................................................................
.............................. CYCLE   36 ..............................
........................................................................

 iter      E             dE          RMSdq      gap      omega  full diag
   1   -103.4785271 -0.103479E+03  0.149E-02    2.71       0.0  T
   2   -103.4785272 -0.697000E-07  0.867E-03    2.71       1.4  T
   3   -103.4785271  0.133131E-06  0.159E-03    2.71       7.5  T
   4   -103.4785272 -0.157152E-06  0.519E-04    2.71      22.9  T
   5   -103.4785272 -0.688976E-08  0.190E-04    2.71      62.3  T
     SCC iter.                  ...        0 min,  0.632 sec
     gradient                   ...        0 min,  0.119 sec
 * total energy  :  -101.9624433 Eh     change       -0.3210665E-05 Eh
   gradient norm :     0.0005075 Eh/α   predicted    -0.1501247E-05 ( -53.24%)
   displ. norm   :     0.1183309 α      lambda       -0.2431800E-05
   maximum displ.:     0.0681744 α      in ANC's #4, #21, #3, ...

........................................................................
.............................. CYCLE   37 ..............................
........................................................................

 iter      E             dE          RMSdq      gap      omega  full diag
   1   -103.4785205 -0.103479E+03  0.132E-02    2.71       0.0  T
   2   -103.4785205 -0.620399E-07  0.769E-03    2.71       1.5  T
   3   -103.4785204  0.978187E-07  0.140E-03    2.71       8.5  T
   4   -103.4785206 -0.113716E-06  0.496E-04    2.71      23.9  T
   5   -103.4785206 -0.844997E-08  0.176E-04    2.71      67.5  T
     SCC iter.                  ...        0 min,  0.510 sec
     gradient                   ...        0 min,  0.111 sec
 * total energy  :  -101.9624458 Eh     change       -0.2574674E-05 Eh
   gradient norm :     0.0004477 Eh/α   predicted    -0.1227076E-05 ( -52.34%)
   displ. norm   :     0.0935490 α      lambda       -0.2232618E-05
   maximum displ.:     0.0515090 α      in ANC's #4, #21, #3, ...

........................................................................
.............................. CYCLE   38 ..............................
........................................................................

 iter      E             dE          RMSdq      gap      omega  full diag
   1   -103.4785310 -0.103479E+03  0.108E-02    2.71       0.0  T
   2   -103.4785310 -0.481676E-07  0.626E-03    2.71       1.9  T
   3   -103.4785310  0.813618E-07  0.125E-03    2.71       9.5  T
   4   -103.4785311 -0.935161E-07  0.424E-04    2.71      28.0  T
   5   -103.4785311 -0.675048E-08  0.145E-04    2.71      82.1  T
     SCC iter.                  ...        0 min,  0.630 sec
     gradient                   ...        0 min,  0.115 sec
 * total energy  :  -101.9624483 Eh     change       -0.2477059E-05 Eh
   gradient norm :     0.0002596 Eh/α   predicted    -0.1124480E-05 ( -54.60%)
   displ. norm   :     0.1016257 α      lambda       -0.2249960E-05
   maximum displ.:     0.0520987 α      in ANC's #21, #4, #2, ...

........................................................................
.............................. CYCLE   39 ..............................
........................................................................

 iter      E             dE          RMSdq      gap      omega  full diag
   1   -103.4783988 -0.103478E+03  0.119E-02    2.71       0.0  T
   2   -103.4783989 -0.559925E-07  0.691E-03    2.71       1.7  T
   3   -103.4783988  0.554180E-07  0.118E-03    2.71      10.0  T
   4   -103.4783989 -0.641236E-07  0.482E-04    2.71      24.6  T
   5   -103.4783989 -0.991442E-08  0.163E-04    2.71      72.7  T
     SCC iter.                  ...        0 min,  0.515 sec
     gradient                   ...        0 min,  0.118 sec
 * total energy  :  -101.9624505 Eh     change       -0.2185196E-05 Eh
   gradient norm :     0.0004543 Eh/α   predicted    -0.1133936E-05 ( -48.11%)
   displ. norm   :     0.1035495 α      lambda        0.5270875E-06
   maximum displ.:     0.0530791 α      in ANC's #21, #4, #2, ...

........................................................................
.............................. CYCLE   40 ..............................
........................................................................

 iter      E             dE          RMSdq      gap      omega  full diag
   1   -103.4781208 -0.103478E+03  0.122E-02    2.71       0.0  T
   2   -103.4781209 -0.680724E-07  0.707E-03    2.71       1.7  T
   3   -103.4781209  0.530541E-07  0.121E-03    2.71       9.8  T
   4   -103.4781209 -0.618768E-07  0.499E-04    2.71      23.8  T
   5   -103.4781209 -0.109617E-07  0.178E-04    2.71      66.8  T
     SCC iter.                  ...        0 min,  0.555 sec
     gradient                   ...        0 min,  0.121 sec
 * total energy  :  -101.9624497 Eh     change        0.8401276E-06 Eh
   gradient norm :     0.0010741 Eh/α   predicted     0.2645304E-06 ( -68.51%)
   displ. norm   :     0.0691030 α      lambda       -0.3983165E-05
   maximum displ.:     0.0399494 α      in ANC's #4, #2, #21, ...

........................................................................
.............................. CYCLE   41 ..............................
........................................................................

 iter      E             dE          RMSdq      gap      omega  full diag
   1   -103.4788619 -0.103479E+03  0.951E-03    2.71       0.0  T
   2   -103.4788621 -0.133818E-06  0.546E-03    2.71       2.2  T
   3   -103.4788621  0.612903E-08  0.896E-04    2.71      13.2  T
   4   -103.4788621 -0.144656E-07  0.342E-04    2.71      34.7  T
     SCC iter.                  ...        0 min,  0.486 sec
     gradient                   ...        0 min,  0.111 sec
 * total energy  :  -101.9624502 Eh     change       -0.5650389E-06 Eh
   gradient norm :     0.0010018 Eh/α   predicted    -0.1999592E-05 ( 253.89%)
   displ. norm   :     0.0418768 α      lambda       -0.3381091E-05
   maximum displ.:     0.0161083 α      in ANC's #10, #3, #15, ...

........................................................................
.............................. CYCLE   42 ..............................
........................................................................

 iter      E             dE          RMSdq      gap      omega  full diag
   1   -103.4785767 -0.103479E+03  0.751E-03    2.71       0.0  T
   2   -103.4785767 -0.565091E-07  0.425E-03    2.71       2.8  T
   3   -103.4785767  0.222360E-07  0.869E-04    2.71      13.7  T
   4   -103.4785767 -0.241071E-07  0.372E-04    2.71      31.9  T
     SCC iter.                  ...        0 min,  0.499 sec
     gradient                   ...        0 min,  0.118 sec
 * total energy  :  -101.9624526 Eh     change       -0.2382200E-05 Eh
   gradient norm :     0.0002444 Eh/α   predicted    -0.1694262E-05 ( -28.88%)
   displ. norm   :     0.0193460 α      lambda       -0.7979725E-06
   maximum displ.:     0.0133543 α      in ANC's #21, #2, #5, ...
 * RMSD in coord.:     0.1336632 α      energy gain  -0.6212323E-04 Eh

generating ANC from exact Hessian ...
Using Lindh-Hessian (1995)
 Shifting diagonal of input Hessian by    9.8979333342721285E-003
 Lowest  eigenvalues of input Hessian
    0.000000    0.000000    0.000000    0.000000    0.000000    0.000000
    0.010000    0.010114    0.010225    0.010355    0.010389    0.010584
    0.010951    0.011344    0.011536    0.011706    0.012108    0.012160
 Highest eigenvalues
    2.016603    2.020898    2.038454    2.048165    2.122322    2.282868


........................................................................
.............................. CYCLE   43 ..............................
........................................................................

 iter      E             dE          RMSdq      gap      omega  full diag
   1   -103.4785595 -0.103479E+03  0.310E-03    2.71       0.0  T
   2   -103.4785595 -0.320605E-08  0.182E-03    2.71       6.5  T
   3   -103.4785595  0.312065E-08  0.277E-04    2.71      42.8  T
   4   -103.4785595 -0.384279E-08  0.115E-04    2.71     103.3  T
     SCC iter.                  ...        0 min,  0.499 sec
     gradient                   ...        0 min,  0.113 sec
 * total energy  :  -101.9624535 Eh     change       -0.9389952E-06 Eh
   gradient norm :     0.0001936 Eh/α   predicted     0.0000000E+00 (-100.00%)
   displ. norm   :     0.0071437 α      lambda       -0.4700125E-07
   maximum displ.:     0.0040198 α      in ANC's #21, #4, #7, ...

........................................................................
.............................. CYCLE   44 ..............................
........................................................................

 iter      E             dE          RMSdq      gap      omega  full diag
   1   -103.4786253 -0.103479E+03  0.123E-03    2.71       0.0  T
   2   -103.4786253 -0.243459E-08  0.660E-04    2.71      18.0  T
   3   -103.4786253  0.401059E-09  0.184E-04    2.71      64.5  T
     SCC iter.                  ...        0 min,  0.325 sec
     gradient                   ...        0 min,  0.115 sec
 * total energy  :  -101.9624541 Eh     change       -0.5172935E-06 Eh
   gradient norm :     0.0001015 Eh/α   predicted    -0.1944045E-06 ( -62.42%)
   displ. norm   :     0.0469949 α      lambda       -0.2077870E-05
   maximum displ.:     0.0282667 α      in ANC's #21, #4, #7, ...

........................................................................
.............................. CYCLE   45 ..............................
........................................................................

 iter      E             dE          RMSdq      gap      omega  full diag
   1   -103.4787616 -0.103479E+03  0.662E-03    2.71       0.0  T
   2   -103.4787616 -0.315079E-07  0.373E-03    2.71       3.2  T
   3   -103.4787616  0.121349E-07  0.805E-04    2.71      14.7  T
   4   -103.4787616 -0.129593E-07  0.368E-04    2.71      32.3  T
     SCC iter.                  ...        0 min,  0.372 sec
     gradient                   ...        0 min,  0.109 sec
 * total energy  :  -101.9624564 Eh     change       -0.2380429E-05 Eh
   gradient norm :     0.0005226 Eh/α   predicted    -0.1044196E-05 ( -56.13%)
   displ. norm   :     0.1024396 α      lambda       -0.3540833E-05
   maximum displ.:     0.0646137 α      in ANC's #21, #4, #7, ...

........................................................................
.............................. CYCLE   46 ..............................
........................................................................

 iter      E             dE          RMSdq      gap      omega  full diag
   1   -103.4786874 -0.103479E+03  0.159E-02    2.71       0.0  T
   2   -103.4786876 -0.221284E-06  0.842E-03    2.71       1.4  T
   3   -103.4786876  0.611310E-07  0.225E-03    2.71       5.3  T
   4   -103.4786876 -0.297678E-07  0.125E-03    2.71       9.5  T
   5   -103.4786877 -0.803592E-07  0.285E-04    2.71      41.7  T
   6   -103.4786877 -0.925681E-09  0.130E-04    2.71      91.1  T
     SCC iter.                  ...        0 min,  0.716 sec
     gradient                   ...        0 min,  0.113 sec
 * total energy  :  -101.9624592 Eh     change       -0.2762987E-05 Eh
   gradient norm :     0.0007617 Eh/α   predicted    -0.1779363E-05 ( -35.60%)
   displ. norm   :     0.1238374 α      lambda       -0.4100591E-05
   maximum displ.:     0.0818971 α      in ANC's #21, #4, #7, ...

........................................................................
.............................. CYCLE   47 ..............................
........................................................................

 iter      E             dE          RMSdq      gap      omega  full diag
   1   -103.4783173 -0.103478E+03  0.161E-02    2.71       0.0  T
   2   -103.4783175 -0.197788E-06  0.947E-03    2.71       1.3  T
   3   -103.4783173  0.169317E-06  0.211E-03    2.71       5.6  T
   4   -103.4783175 -0.194504E-06  0.732E-04    2.71      16.2  T
   5   -103.4783175 -0.192743E-07  0.328E-04    2.71      36.2  T
     SCC iter.                  ...        0 min,  0.573 sec
     gradient                   ...        0 min,  0.114 sec
 * total energy  :  -101.9624609 Eh     change       -0.1737813E-05 Eh
   gradient norm :     0.0010367 Eh/α   predicted    -0.2065671E-05 (  18.87%)
   displ. norm   :     0.0242521 α      lambda       -0.3121859E-05
   maximum displ.:     0.0099236 α      in ANC's #11, #7, #4, ...

........................................................................
.............................. CYCLE   48 ..............................
........................................................................

 iter      E             dE          RMSdq      gap      omega  full diag
   1   -103.4785690 -0.103479E+03  0.498E-03    2.71       0.0  T
   2   -103.4785691 -0.323346E-07  0.277E-03    2.71       4.3  T
   3   -103.4785691  0.848786E-08  0.673E-04    2.71      17.6  T
   4   -103.4785691 -0.111174E-07  0.264E-04    2.71      45.0  T
     SCC iter.                  ...        0 min,  0.481 sec
     gradient                   ...        0 min,  0.113 sec
 * total energy  :  -101.9624642 Eh     change       -0.3289402E-05 Eh
   gradient norm :     0.0004671 Eh/α   predicted    -0.1562363E-05 ( -52.50%)
   displ. norm   :     0.0413932 α      lambda       -0.3664037E-05
   maximum displ.:     0.0269039 α      in ANC's #21, #3, #6, ...

........................................................................
.............................. CYCLE   49 ..............................
........................................................................

 iter      E             dE          RMSdq      gap      omega  full diag
   1   -103.4786111 -0.103479E+03  0.669E-03    2.71       0.0  T
   2   -103.4786112 -0.405370E-07  0.370E-03    2.71       3.2  T
   3   -103.4786111  0.537285E-08  0.753E-04    2.71      15.8  T
   4   -103.4786112 -0.720175E-08  0.367E-04    2.71      32.3  T
     SCC iter.                  ...        0 min,  0.327 sec
     gradient                   ...        0 min,  0.124 sec
 * total energy  :  -101.9624684 Eh     change       -0.4166953E-05 Eh
   gradient norm :     0.0003491 Eh/α   predicted    -0.1833833E-05 ( -55.99%)
   displ. norm   :     0.0882187 α      lambda       -0.4049085E-05
   maximum displ.:     0.0645776 α      in ANC's #21, #3, #4, ...

........................................................................
.............................. CYCLE   50 ..............................
........................................................................

 iter      E             dE          RMSdq      gap      omega  full diag
   1   -103.4784270 -0.103478E+03  0.112E-02    2.71       0.0  T
   2   -103.4784270 -0.525332E-07  0.649E-03    2.71       1.8  T
   3   -103.4784270  0.178472E-07  0.926E-04    2.71      12.8  T
   4   -103.4784270 -0.213543E-07  0.449E-04    2.71      26.4  T
     SCC iter.                  ...        0 min,  0.345 sec
     gradient                   ...        0 min,  0.109 sec
 * total energy  :  -101.9624730 Eh     change       -0.4594578E-05 Eh
   gradient norm :     0.0007331 Eh/α   predicted    -0.2033685E-05 ( -55.74%)
   displ. norm   :     0.0717028 α      lambda       -0.2779250E-05
   maximum displ.:     0.0526496 α      in ANC's #21, #3, #4, ...

........................................................................
.............................. CYCLE   51 ..............................
........................................................................

 iter      E             dE          RMSdq      gap      omega  full diag
   1   -103.4782187 -0.103478E+03  0.105E-02    2.71       0.0  T
   2   -103.4782188 -0.788155E-07  0.564E-03    2.71       2.1  T
   3   -103.4782188  0.239808E-08  0.131E-03    2.71       9.1  T
   4   -103.4782188 -0.466579E-08  0.633E-04    2.71      18.7  T
   5   -103.4782188 -0.131626E-07  0.146E-04    2.71      81.5  T
     SCC iter.                  ...        0 min,  0.607 sec
     gradient                   ...        0 min,  0.120 sec
 * total energy  :  -101.9624760 Eh     change       -0.3050550E-05 Eh
   gradient norm :     0.0010422 Eh/α   predicted    -0.1393544E-05 ( -54.32%)
   displ. norm   :     0.1242702 α      lambda       -0.4287392E-05
   maximum displ.:     0.0928382 α      in ANC's #21, #3, #4, ...

........................................................................
.............................. CYCLE   52 ..............................
........................................................................

 iter      E             dE          RMSdq      gap      omega  full diag
   1   -103.4778657 -0.103478E+03  0.151E-02    2.71       0.0  T
   2   -103.4778658 -0.882243E-07  0.893E-03    2.71       1.3  T
   3   -103.4778658  0.163860E-07  0.103E-03    2.71      11.5  T
   4   -103.4778658 -0.270150E-07  0.501E-04    2.71      23.7  T
   5   -103.4778658 -0.844125E-08  0.169E-04    2.71      70.1  T
     SCC iter.                  ...        0 min,  0.557 sec
     gradient                   ...        0 min,  0.111 sec
 * total energy  :  -101.9624791 Eh     change       -0.3017030E-05 Eh
   gradient norm :     0.0019339 Eh/α   predicted    -0.2162428E-05 ( -28.33%)
   displ. norm   :     0.0288515 α      lambda       -0.4727332E-05
   maximum displ.:     0.0140759 α      in ANC's #21, #6, #11, ...

........................................................................
.............................. CYCLE   53 ..............................
........................................................................

 iter      E             dE          RMSdq      gap      omega  full diag
   1   -103.4782006 -0.103478E+03  0.630E-03    2.71       0.0  T
   2   -103.4782007 -0.683828E-07  0.325E-03    2.71       3.7  T
   3   -103.4782007  0.841212E-08  0.926E-04    2.71      12.8  T
   4   -103.4782007 -0.919498E-08  0.471E-04    2.71      25.2  T
     SCC iter.                  ...        0 min,  0.381 sec
     gradient                   ...        0 min,  0.113 sec
 * total energy  :  -101.9624843 Eh     change       -0.5250470E-05 Eh
   gradient norm :     0.0009702 Eh/α   predicted    -0.2365787E-05 ( -54.94%)
   displ. norm   :     0.1290224 α      lambda       -0.7759339E-05
   maximum displ.:     0.0937794 α      in ANC's #21, #1, #4, ...

........................................................................
.............................. CYCLE   54 ..............................
........................................................................

 iter      E             dE          RMSdq      gap      omega  full diag
   1   -103.4783438 -0.103478E+03  0.178E-02    2.71       0.0  T
   2   -103.4783439 -0.110156E-06  0.103E-02    2.71       1.2  T
   3   -103.4783439  0.232977E-07  0.142E-03    2.71       8.4  T
   4   -103.4783439 -0.365310E-07  0.631E-04    2.71      18.8  T
   5   -103.4783440 -0.135070E-07  0.222E-04    2.71      53.5  T
     SCC iter.                  ...        0 min,  0.598 sec
     gradient                   ...        0 min,  0.113 sec
 * total energy  :  -101.9624924 Eh     change       -0.8103296E-05 Eh
   gradient norm :     0.0010754 Eh/α   predicted    -0.3908663E-05 ( -51.76%)
   displ. norm   :     0.1123186 α      lambda       -0.5464100E-05
   maximum displ.:     0.0809026 α      in ANC's #21, #1, #4, ...

........................................................................
.............................. CYCLE   55 ..............................
........................................................................

 iter      E             dE          RMSdq      gap      omega  full diag
   1   -103.4784264 -0.103478E+03  0.152E-02    2.71       0.0  T
   2   -103.4784265 -0.708313E-07  0.886E-03    2.71       1.3  T
   3   -103.4784265  0.186381E-07  0.116E-03    2.71      10.2  T
   4   -103.4784265 -0.276537E-07  0.527E-04    2.71      22.5  T
   5   -103.4784265 -0.906766E-08  0.176E-04    2.71      67.3  T
     SCC iter.                  ...        0 min,  0.492 sec
     gradient                   ...        0 min,  0.119 sec
 * total energy  :  -101.9624980 Eh     change       -0.5591810E-05 Eh
   gradient norm :     0.0011718 Eh/α   predicted    -0.2751836E-05 ( -50.79%)
   displ. norm   :     0.0732168 α      lambda       -0.4586173E-05
   maximum displ.:     0.0502157 α      in ANC's #21, #5, #1, ...

........................................................................
.............................. CYCLE   56 ..............................
........................................................................

 iter      E             dE          RMSdq      gap      omega  full diag
   1   -103.4787404 -0.103479E+03  0.105E-02    2.71       0.0  T
   2   -103.4787404 -0.555446E-07  0.608E-03    2.71       2.0  T
   3   -103.4787404 -0.535422E-09  0.784E-04    2.71      15.1  T
   4   -103.4787404 -0.417883E-08  0.356E-04    2.71      33.4  T
     SCC iter.                  ...        0 min,  0.464 sec
     gradient                   ...        0 min,  0.111 sec
 * total energy  :  -101.9625024 Eh     change       -0.4353752E-05 Eh
   gradient norm :     0.0005775 Eh/α   predicted    -0.2303535E-05 ( -47.09%)
   displ. norm   :     0.3062230 α      lambda       -0.9497105E-05
   maximum displ.:     0.2293187 α      in ANC's #21, #1, #4, ...

........................................................................
.............................. CYCLE   57 ..............................
........................................................................

 iter      E             dE          RMSdq      gap      omega  full diag
   1   -103.4767149 -0.103477E+03  0.399E-02    2.71       0.0  T
   2   -103.4767162 -0.133697E-05  0.235E-02    2.71       1.0  T
   3   -103.4767162  0.540136E-07  0.282E-03    2.70       4.2  T
   4   -103.4767163 -0.166875E-06  0.124E-03    2.70       9.6  T
   5   -103.4767164 -0.446176E-07  0.590E-04    2.70      20.1  T
   6   -103.4767164 -0.951034E-08  0.171E-04    2.70      69.3  T
     SCC iter.                  ...        0 min,  0.655 sec
     gradient                   ...        0 min,  0.111 sec
 * total energy  :  -101.9624758 Eh     change        0.2654250E-04 Eh
   gradient norm :     0.0055776 Eh/α   predicted    -0.4951145E-05 (-118.65%)
   displ. norm   :     0.1557053 α      lambda       -0.6511025E-04
   maximum displ.:     0.1156614 α      in ANC's #21, #1, #4, ...

........................................................................
.............................. CYCLE   58 ..............................
........................................................................

 iter      E             dE          RMSdq      gap      omega  full diag
   1   -103.4781838 -0.103478E+03  0.213E-02    2.71       0.0  T
   2   -103.4781844 -0.624889E-06  0.124E-02    2.71       1.0  T
   3   -103.4781844  0.348804E-07  0.191E-03    2.71       6.2  T
   4   -103.4781845 -0.681203E-07  0.776E-04    2.71      15.3  T
   5   -103.4781845 -0.266574E-07  0.347E-04    2.71      34.2  T
     SCC iter.                  ...        0 min,  0.481 sec
     gradient                   ...        0 min,  0.109 sec
 * total energy  :  -101.9625080 Eh     change       -0.3219833E-04 Eh
   gradient norm :     0.0015297 Eh/α   predicted    -0.3334728E-04 (   3.57%)
   displ. norm   :     0.0188937 α      lambda       -0.4205110E-05
   maximum displ.:     0.0081646 α      in ANC's #5, #21, #19, ...

........................................................................
.............................. CYCLE   59 ..............................
........................................................................

 iter      E             dE          RMSdq      gap      omega  full diag
   1   -103.4785643 -0.103479E+03  0.429E-03    2.71       0.0  T
   2   -103.4785644 -0.547596E-07  0.225E-03    2.71       5.3  T
   3   -103.4785644  0.601872E-09  0.670E-04    2.71      17.7  T
   4   -103.4785644 -0.281646E-08  0.272E-04    2.71      43.6  T
     SCC iter.                  ...        0 min,  0.499 sec
     gradient                   ...        0 min,  0.109 sec
 * total energy  :  -101.9625124 Eh     change       -0.4404677E-05 Eh
   gradient norm :     0.0005221 Eh/α   predicted    -0.2104062E-05 ( -52.23%)
   displ. norm   :     0.0529418 α      lambda       -0.3648509E-05
   maximum displ.:     0.0382391 α      in ANC's #21, #5, #1, ...

........................................................................
.............................. CYCLE   60 ..............................
........................................................................

 iter      E             dE          RMSdq      gap      omega  full diag
   1   -103.4787360 -0.103479E+03  0.731E-03    2.71       0.0  T
   2   -103.4787361 -0.297197E-07  0.423E-03    2.71       2.8  T
   3   -103.4787361  0.194977E-07  0.822E-04    2.71      14.4  T
   4   -103.4787361 -0.202580E-07  0.365E-04    2.71      32.5  T
     SCC iter.                  ...        0 min,  0.424 sec
     gradient                   ...        0 min,  0.113 sec
 * total energy  :  -101.9625169 Eh     change       -0.4476259E-05 Eh
   gradient norm :     0.0003411 Eh/α   predicted    -0.1830831E-05 ( -59.10%)
   displ. norm   :     0.2067131 α      lambda       -0.9480219E-05
   maximum displ.:     0.1573424 α      in ANC's #21, #5, #1, ...

........................................................................
.............................. CYCLE   61 ..............................
........................................................................

 iter      E             dE          RMSdq      gap      omega  full diag
   1   -103.4781733 -0.103478E+03  0.271E-02    2.71       0.0  T
   2   -103.4781736 -0.288878E-06  0.159E-02    2.71       1.0  T
   3   -103.4781735  0.976846E-07  0.229E-03    2.71       5.2  T
   4   -103.4781736 -0.982878E-07  0.112E-03    2.71      10.6  T
   5   -103.4781737 -0.630490E-07  0.358E-04    2.71      33.1  T
   6   -103.4781737 -0.608841E-08  0.140E-04    2.71      84.9  T
     SCC iter.                  ...        0 min,  0.467 sec
     gradient                   ...        0 min,  0.109 sec
 * total energy  :  -101.9625249 Eh     change       -0.8036128E-05 Eh
   gradient norm :     0.0014268 Eh/α   predicted    -0.4830600E-05 ( -39.89%)
   displ. norm   :     0.0188032 α      lambda       -0.2864882E-05
   maximum displ.:     0.0088569 α      in ANC's #21, #2, #4, ...

........................................................................
.............................. CYCLE   62 ..............................
........................................................................

 iter      E             dE          RMSdq      gap      omega  full diag
   1   -103.4784485 -0.103478E+03  0.356E-03    2.71       0.0  T
   2   -103.4784485 -0.299614E-07  0.201E-03    2.71       5.9  T
   3   -103.4784485  0.672330E-09  0.463E-04    2.71      25.6  T
   4   -103.4784485 -0.265918E-08  0.159E-04    2.71      74.6  T
     SCC iter.                  ...        0 min,  0.406 sec
     gradient                   ...        0 min,  0.121 sec
 * total energy  :  -101.9625280 Eh     change       -0.3059540E-05 Eh
   gradient norm :     0.0006074 Eh/α   predicted    -0.1433320E-05 ( -53.15%)
   displ. norm   :     0.1123720 α      lambda       -0.6084129E-05
   maximum displ.:     0.0850928 α      in ANC's #21, #1, #5, ...

........................................................................
.............................. CYCLE   63 ..............................
........................................................................

 iter      E             dE          RMSdq      gap      omega  full diag
   1   -103.4784099 -0.103478E+03  0.156E-02    2.71       0.0  T
[...]

           -------------------------------------------------
          |                Property Printout                |
           -------------------------------------------------

    * Orbital Energies and Occupations

         #    Occupation            Energy/Eh            Energy/eV
      -------------------------------------------------------------
         1        2.0000           -0.8817616             -23.9940
       ...           ...                  ...                  ...
        82        2.0000           -0.5370569             -14.6141
        83        2.0000           -0.5351951             -14.5634
        84        2.0000           -0.5319566             -14.4753
        85        2.0000           -0.5267418             -14.3334
        86        2.0000           -0.5247112             -14.2781
        87        2.0000           -0.5175010             -14.0819
        88        2.0000           -0.5123632             -13.9421
        89        2.0000           -0.5117423             -13.9252
        90        2.0000           -0.5100572             -13.8794
        91        2.0000           -0.5044268             -13.7262
        92        2.0000           -0.5037854             -13.7087
        93        2.0000           -0.4944562             -13.4548
        94        2.0000           -0.4824945             -13.1293 (HOMO)
        95                         -0.3829508             -10.4206 (LUMO)
        96                         -0.3522227              -9.5845
        97                         -0.3412739              -9.2865
        98                         -0.3391574              -9.2289
        99                         -0.3354740              -9.1287
       100                         -0.3316216              -9.0239
       101                         -0.3293946              -8.9633
       102                         -0.3247010              -8.8356
       103                         -0.2833358              -7.7100
       104                         -0.2497198              -6.7952
       105                         -0.2400330              -6.5316
       ...                                ...                  ...
       194                          1.1028431              30.0099
      -------------------------------------------------------------
                  HL-Gap            0.0995436 Eh            2.7087 eV
             Fermi-level           -0.4327227 Eh          -11.7750 eV

     #   Z          covCN         q      C6AA      α(0)
     1   6 C        3.758    -0.118    22.816     6.810
     2   6 C        2.965     0.028    27.374     8.582
     3   6 C        2.927    -0.038    28.943     8.823
     4   6 C        2.957    -0.033    28.823     8.806
     5   6 C        2.975     0.027    27.398     8.586
     6  16 S        2.070    -0.021   141.938    20.052
     7  16 S        1.903    -0.076   144.224    20.213
     8  15 P        4.546     0.571   137.274    21.047
     9   7 N        2.680    -0.172    24.722     7.385
    10   6 C        3.914     0.045    19.764     6.319
    11   6 C        3.755    -0.125    22.949     6.831
    12   6 C        3.756    -0.127    22.989     6.836
    13   6 C        4.030     0.050    19.654     6.298
    14   6 C        3.754    -0.125    22.961     6.833
    15   6 C        3.755    -0.122    22.904     6.824
    16   8 O        1.657    -0.256    18.265     5.769
    17   6 C        3.237     0.119    24.583     8.043
    18   6 C        2.918    -0.052    29.288     8.875
    19   6 C        2.924    -0.024    28.601     8.770
    20   6 C        2.916    -0.035    28.873     8.811
    21   6 C        3.022     0.018    27.591     8.616
    22   6 C        3.024    -0.014    28.328     8.730
    23   6 C        3.964     0.025    20.092     6.369
    24   6 C        3.855    -0.060    21.617     6.613
    25   6 C        3.834    -0.066    21.739     6.634
    26   6 C        3.853    -0.061    21.634     6.615
    27   6 C        3.833    -0.066    21.745     6.634
    28   6 C        3.024     0.017    27.599     8.617
    29   6 C        2.915    -0.037    28.928     8.820
    30   6 C        2.924    -0.028    28.696     8.785
    31   6 C        2.919    -0.055    29.375     8.888
    32   6 C        3.177     0.124    24.919     8.151
    33   6 C        3.020    -0.013    28.314     8.728
    34   8 O        1.658    -0.270    18.497     5.806
    35   6 C        2.949    -0.033    28.811     8.804
    36   6 C        2.927    -0.037    28.908     8.817
    37   1 H        0.925     0.071     2.077     2.254
    38   1 H        0.925     0.055     2.257     2.350
    39   1 H        0.925     0.056     2.242     2.341
    40   1 H        0.926     0.052     2.300     2.372
    41   1 H        0.926     0.050     2.320     2.382
    42   1 H        0.924     0.067     2.114     2.274
    43   1 H        0.925     0.053     2.282     2.362
    44   1 H        0.925     0.068     2.103     2.268
    45   1 H        0.925     0.058     2.224     2.332
    46   1 H        0.925     0.056     2.249     2.345
    47   1 H        0.925     0.051     2.309     2.376
    48   1 H        0.925     0.070     2.083     2.257
    49   1 H        0.924     0.041     2.434     2.440
    50   1 H        0.925     0.047     2.360     2.402
    51   1 H        0.925     0.065     2.142     2.289
    52   1 H        0.925     0.061     2.184     2.311
    53   1 H        0.925     0.064     2.156     2.296
    54   1 H        0.925     0.057     2.231     2.336
    55   1 H        0.925     0.062     2.180     2.309
    56   1 H        0.926     0.059     2.207     2.323
    57   1 H        0.926     0.069     2.101     2.267
    58   1 H        0.926     0.066     2.127     2.281
    59   1 H        0.925     0.054     2.276     2.359
    60   1 H        0.924     0.043     2.412     2.429
    61   1 H        0.925     0.063     2.162     2.299
    62   1 H        0.924     0.065     2.146     2.291
    63   1 H        0.924     0.043     2.410     2.428
    64   1 H        0.925     0.055     2.263     2.352
    65   1 H        0.924     0.065     2.142     2.289
    66   1 H        0.925     0.063     2.169     2.303
    67   1 H        0.926     0.065     2.145     2.290
    68   1 H        0.926     0.063     2.160     2.298
    69   1 H        0.926     0.058     2.225     2.333
    70   1 H        0.926     0.054     2.271     2.357
    71   1 H        0.926     0.055     2.259     2.351

 Mol. C6AA /au·bohr⁶  :      63514.369070
 Mol. C8AA /au·bohr⁸  :    1711004.274865
 Mol. α(0) /au        :        397.683063


Wiberg/Mayer (AO) data.
largest (>0.10) Wiberg bond orders for each atom

 ---------------------------------------------------------------------------
     #   Z sym  total        # sym  WBO       # sym  WBO       # sym  WBO
 ---------------------------------------------------------------------------
     1   6 C    3.992 --     2 C    1.034    38 H    0.980    39 H    0.978
                            37 H    0.957
     2   6 C    3.978 --     3 C    1.403    36 C    1.396     1 C    1.034
     3   6 C    3.990 --     4 C    1.447     2 C    1.403    40 H    0.966
                            35 C    0.105
     4   6 C    3.990 --     3 C    1.447     5 C    1.402    41 H    0.967
                            36 C    0.104
     5   6 C    3.952 --     4 C    1.402    35 C    1.400     6 S    0.978
     6  16 S    2.335 --     7 S    1.166     5 C    0.978
     7  16 S    2.412 --     6 S    1.166     8 P    0.971
     8  15 P    5.129 --    16 O    1.295    34 O    1.289     9 N    1.238
                             7 S    0.971
     9   7 N    3.382 --     8 P    1.238    13 C    0.941    10 C    0.937
    10   6 C    3.953 --    12 C    1.007    11 C    1.007    42 H    0.955
                             9 N    0.937
    11   6 C    3.990 --    10 C    1.007    43 H    0.984    44 H    0.979
                            45 H    0.978
    12   6 C    3.990 --    10 C    1.007    48 H    0.979    47 H    0.978
                            46 H    0.975
    13   6 C    3.958 --    14 C    1.006    15 C    1.003    49 H    0.946
                             9 N    0.941
    14   6 C    3.991 --    13 C    1.006    52 H    0.981    51 H    0.980
                            50 H    0.978
    15   6 C    3.988 --    13 C    1.003    54 H    0.981    53 H    0.981
                            55 H    0.980
    16   8 O    2.402 --     8 P    1.295    17 C    0.872
    17   6 C    3.875 --    22 C    1.405    18 C    1.383    16 O    0.872
    18   6 C    3.986 --    19 C    1.449    17 C    1.383    56 H    0.963
                            21 C    0.107
    19   6 C    3.984 --    18 C    1.449    20 C    1.421    57 H    0.967
                            22 C    0.104
    20   6 C    3.988 --    21 C    1.439    19 C    1.421    58 H    0.966
    21   6 C    3.984 --    20 C    1.439    22 C    1.346    25 C    1.017
                            18 C    0.107
    22   6 C    3.982 --    17 C    1.405    21 C    1.346    23 C    0.991
                            19 C    0.104
    23   6 C    3.989 --    22 C    0.991    33 C    0.990    26 C    0.957
                            24 C    0.955
    24   6 C    3.993 --    25 C    1.002    60 H    0.979    59 H    0.977
                            23 C    0.955
    25   6 C    3.994 --    21 C    1.017    24 C    1.002    61 H    0.965
                            62 H    0.955
    26   6 C    3.993 --    27 C    1.002    63 H    0.978    64 H    0.977
                            23 C    0.957
    27   6 C    3.994 --    28 C    1.017    26 C    1.002    66 H    0.965
                            65 H    0.954
    28   6 C    3.984 --    29 C    1.440    33 C    1.345    27 C    1.017
                            31 C    0.107
    29   6 C    3.987 --    28 C    1.440    30 C    1.420    67 H    0.966
    30   6 C    3.985 --    31 C    1.451    29 C    1.420    68 H    0.968
                            33 C    0.105
    31   6 C    3.986 --    30 C    1.451    32 C    1.383    69 H    0.962
                            28 C    0.107
    32   6 C    3.878 --    33 C    1.405    31 C    1.383    34 O    0.871
    33   6 C    3.983 --    32 C    1.405    28 C    1.345    23 C    0.990
                            30 C    0.105
    34   8 O    2.389 --     8 P    1.289    32 C    0.871
    35   6 C    3.990 --    36 C    1.455     5 C    1.400    70 H    0.966
                             3 C    0.105
    36   6 C    3.990 --    35 C    1.455     2 C    1.396    71 H    0.966
                             4 C    0.104
    37   1 H    0.993 --     1 C    0.957
    38   1 H    0.996 --     1 C    0.980
    39   1 H    0.996 --     1 C    0.978
    40   1 H    0.997 --     3 C    0.966
    41   1 H    0.997 --     4 C    0.967
    42   1 H    0.995 --    10 C    0.955
    43   1 H    0.997 --    11 C    0.984
    44   1 H    0.994 --    11 C    0.979
    45   1 H    0.997 --    11 C    0.978
    46   1 H    0.997 --    12 C    0.975
    47   1 H    0.997 --    12 C    0.978
    48   1 H    0.995 --    12 C    0.979
    49   1 H    0.998 --    13 C    0.946
    50   1 H    0.998 --    14 C    0.978
    51   1 H    0.995 --    14 C    0.980
    52   1 H    0.996 --    14 C    0.981
    53   1 H    0.995 --    15 C    0.981
    54   1 H    0.997 --    15 C    0.981
    55   1 H    0.996 --    15 C    0.980
    56   1 H    0.996 --    18 C    0.963
    57   1 H    0.994 --    19 C    0.967
    58   1 H    0.995 --    20 C    0.966
    59   1 H    0.996 --    24 C    0.977
    60   1 H    0.998 --    24 C    0.979
    61   1 H    0.995 --    25 C    0.965
    62   1 H    0.996 --    25 C    0.955
    63   1 H    0.998 --    26 C    0.978
    64   1 H    0.996 --    26 C    0.977
    65   1 H    0.996 --    27 C    0.954
    66   1 H    0.995 --    27 C    0.965
    67   1 H    0.995 --    29 C    0.966
    68   1 H    0.995 --    30 C    0.968
    69   1 H    0.996 --    31 C    0.962
    70   1 H    0.997 --    35 C    0.966
    71   1 H    0.997 --    36 C    0.966
 ---------------------------------------------------------------------------

Topologies differ in total number of bonds
Writing topology from bond orders to xtbtopo.mol

molecular dipole:
                 x           y           z       tot (Debye)
 q only:       -0.084      -0.388       0.480
   full:        0.106      -0.359       0.508       1.604
molecular quadrupole (traceless):
                xx          xy          yy          xz          yz          zz
 q only:       24.967     -10.692     -11.421       8.110       1.216     -13.546
  q+dip:       26.901     -12.451     -11.471       8.528       3.919     -15.430
   full:       26.095      -9.463      -9.684       7.021       1.058     -16.411

           -------------------------------------------------
          |                Geometry Summary                 |
           -------------------------------------------------

      molecular mass/u    :      536.7088531
   center of mass at/Å    :       -0.1014091       0.1110926      -0.4278497
  moments of inertia/u·Å² :        0.3464229E+04   0.5597085E+04   0.5943995E+04
rotational constants/cm⁻¹ :        0.4866200E-02   0.3011859E-02   0.2836078E-02

 * 66 selected distances

     #   Z          #   Z                                           value/Å
     2   6 C        3   6 C                                       1.3913525
     3   6 C        4   6 C                                       1.3829177
     4   6 C        5   6 C                                       1.3857749
     6  16 S        7  16 S                                       2.0426189
     7  16 S        8  15 P                                       2.1188772 (max)
     8  15 P        9   7 N                                       1.6365461
     9   7 N       10   6 C                                       1.4725888
    10   6 C       11   6 C                                       1.5241650
    10   6 C       12   6 C                                       1.5243785
     9   7 N       13   6 C                                       1.4743542
    13   6 C       14   6 C                                       1.5252184
    13   6 C       15   6 C                                       1.5266370
     8  15 P       16   8 O                                       1.5744909
    17   6 C       18   6 C                                       1.3885438
    18   6 C       19   6 C                                       1.3835592
    19   6 C       20   6 C                                       1.3883652
    20   6 C       21   6 C                                       1.3795852
    17   6 C       22   6 C                                       1.3775133
    21   6 C       22   6 C                                       1.3984152
    24   6 C       25   6 C                                       1.5350265
    26   6 C       27   6 C                                       1.5343218
    28   6 C       29   6 C                                       1.3792890
    29   6 C       30   6 C                                       1.3879941
    30   6 C       31   6 C                                       1.3831862
    31   6 C       32   6 C                                       1.3879639
    28   6 C       33   6 C                                       1.3997233
    32   6 C       33   6 C                                       1.3790762
     8  15 P       34   8 O                                       1.5782808
     5   6 C       35   6 C                                       1.3861070
     2   6 C       36   6 C                                       1.3926177
    35   6 C       36   6 C                                       1.3812325
     1   6 C       37   1 H                                       1.0901123
     1   6 C       38   1 H                                       1.0870272
     1   6 C       39   1 H                                       1.0873500
     3   6 C       40   1 H                                       1.0799079
     4   6 C       41   1 H                                       1.0790329
    10   6 C       42   1 H                                       1.0919127
    11   6 C       43   1 H                                       1.0870954
    11   6 C       44   1 H                                       1.0865669
    11   6 C       45   1 H                                       1.0855117
    12   6 C       46   1 H                                       1.0862534
    12   6 C       47   1 H                                       1.0881726
    12   6 C       48   1 H                                       1.0870559
    13   6 C       49   1 H                                       1.0983387
    14   6 C       50   1 H                                       1.0876380
    14   6 C       51   1 H                                       1.0865733
    14   6 C       52   1 H                                       1.0865296
    15   6 C       53   1 H                                       1.0865517
    15   6 C       54   1 H                                       1.0865222
    15   6 C       55   1 H                                       1.0863731
    18   6 C       56   1 H                                       1.0790891
    19   6 C       57   1 H                                       1.0779995
    20   6 C       58   1 H                                       1.0785348
    24   6 C       59   1 H                                       1.0868672
    24   6 C       60   1 H                                       1.0917370
    25   6 C       61   1 H                                       1.0891834
    25   6 C       62   1 H                                       1.0919902
    26   6 C       63   1 H                                       1.0916699
    26   6 C       64   1 H                                       1.0868024
    27   6 C       65   1 H                                       1.0919968
    27   6 C       66   1 H                                       1.0893293
    29   6 C       67   1 H                                       1.0785941
    30   6 C       68   1 H                                       1.0784667
    31   6 C       69   1 H                                       1.0777783 (min)
    35   6 C       70   1 H                                       1.0795335
    36   6 C       71   1 H                                       1.0796194

 * 7 distinct bonds (by element types)

   Z      Z             #   av. dist./Å        max./Å        min./Å
   1 H    6 C          35     1.0858205     1.0983387     1.0777783
   6 C    6 C          24     1.4217902     1.5350265     1.3775133
   6 C    7 N           2     1.4734715     1.4743542     1.4725888
   7 N   15 P           1     1.6365461     1.6365461     1.6365461
   8 O   15 P           2     1.5763859     1.5782808     1.5744909
  15 P   16 S           1     2.1188772     2.1188772     2.1188772
  16 S   16 S           1     2.0426189     2.0426189     2.0426189


optimized geometry written to: xtbopt.xyz


           -------------------------------------------------
          | TOTAL ENERGY             -101.962642265168 Eh   |
          | GRADIENT NORM               0.000025551274 Eh/α |
          | HOMO-LUMO GAP               2.708720506776 eV   |
           -------------------------------------------------

------------------------------------------------------------------------
 * finished run on 2024/12/16 at 20:56:02.686     
------------------------------------------------------------------------
 total:
 * wall-time:     0 d,  0 h,  1 min, 32.019 sec
 *  cpu-time:     0 d,  0 h, 12 min,  8.386 sec
 * ratio c/w:     7.916 speedup
 SCF:
 * wall-time:     0 d,  0 h,  0 min,  2.043 sec
 *  cpu-time:     0 d,  0 h,  0 min, 16.248 sec
 * ratio c/w:     7.951 speedup
 ANC optimizer:
 * wall-time:     0 d,  0 h,  1 min, 29.794 sec
 *  cpu-time:     0 d,  0 h, 11 min, 50.739 sec
 * ratio c/w:     7.915 speedup

