91
 energy: -141.088344515166 gnorm: 0.000051256073 xtb: 6.7.1 (edcfbbe)
C           -4.26936477982583        1.22426541044269       -0.06515235590536
C           -3.70795876018560       -0.19009419029900       -0.17258260782279
C           -3.82430685566399       -0.80426570193927       -1.55122489248521
C           -4.02942583698473       -0.05553156199926       -2.70450859639812
C           -4.12203460107352       -0.66901784836051       -3.94138432911542
C           -4.02392942792511       -2.04628225892132       -4.01800261951447
F           -4.09846935859984       -2.64457564916324       -5.21549796353537
C           -3.86094398287605       -2.82300792154093       -2.88361953604702
C           -3.77114404886699       -2.19295519079684       -1.65748156522498
N           -2.32481487332065       -0.26227722531478        0.34213264100538
C           -2.09149007043043       -0.86283712666376        1.67905246981604
C           -2.89914002437244       -0.17200400393485        2.77416206398700
C           -2.27701917028706       -2.36413770173260        1.67593728250083
C           -3.51764825434172       -2.97648125688150        1.82560572969626
C           -3.63720090463370       -4.35506389138791        1.80236903509541
C           -2.49940577182736       -5.12436683730227        1.63631729283651
F           -2.60947384378409       -6.45849690335478        1.60622834068208
C           -1.24792503967429       -4.54617724074331        1.50920368685853
C           -1.14817936879330       -3.16812448847097        1.53338061779909
P           -0.96734361186149        0.35904146463226       -0.36365987018662
S           -1.52224393827637        1.62205374918744       -1.97725502686249
S            0.29018060655884        2.19021492479357       -2.74306774789891
C            0.65936535257308        3.69118040946939       -1.84627210402351
C           -0.25248568579574        4.73432602954198       -1.80602741639269
C            0.07936664079051        5.89032495563879       -1.12243717465594
C            1.31494138741479        6.00341240262705       -0.50370966325583
C            2.22295143491340        4.95850822179975       -0.56313784497729
C            1.89732381555227        3.79110039728673       -1.23210673434429
N           -0.04014643272290        1.29969627162056        0.64497060292201
C           -0.57403051336236        2.59421998867884        1.05211163069692
C            0.88030345237414        0.66733519366267        1.54172380080163
C            0.68633435916752        0.75707858346399        2.93440077789030
C            1.54677067288554        0.13558535524639        3.79159882773807
C            2.61581348078532       -0.64449682047361        3.30571995765022
C            3.47641658261186       -1.34230474291062        4.17780686938112
C            4.49217059931442       -2.11290413889245        3.68587361480395
C            4.67873500914193       -2.22702219912652        2.30020544863598
C            3.86742231644924       -1.55393135001046        1.42894861078141
C            2.82570071992585       -0.72882735229257        1.90437273540629
C            1.96499585766103       -0.00649196802570        1.02777535243688
C            2.25211426189864        0.01566941159803       -0.41639801110205
C            1.33543947190705       -0.47433548467719       -1.31803707049753
C            1.66513396548486       -0.61291246881625       -2.67932988554471
C            2.88476682379692       -0.20496695298578       -3.13388775209674
C            3.81333826529943        0.40623640955355       -2.26587079390322
C            5.04352167114689        0.91030105321592       -2.73575630880014
C            5.91508612817857        1.52998276725780       -1.88444065285695
C            5.58809718105526        1.67768045130207       -0.52813974377198
C            4.40890350132521        1.18787910970281       -0.03810885552899
C            3.49535616817438        0.52654482242740       -0.88746025952663
N            0.04673512676429       -0.87402876489339       -0.83259724179258
C           -0.54491533390653       -2.03728445664242       -1.48472690068619
H           -4.27407585772923        1.54894920266062        0.97172466410942
H           -3.67990761534576        1.93101475246429       -0.64289576387283
H           -5.29192033597716        1.23670932366747       -0.43283375649237
H           -4.28526278653016       -0.83290174301875        0.49646890354558
H           -4.13246219319385        1.01538775928438       -2.65457351816694
H           -4.27872871078829       -0.09220743368709       -4.83849471261662
H           -3.82009812766231       -3.89695294850145       -2.96758502098336
H           -3.67149609066022       -2.79426348502853       -0.76514252209962
H           -1.02895191089377       -0.69170113787395        1.88935499911500
H           -2.62215176468021       -0.60058512025915        3.73422727584329
H           -3.96915010446040       -0.29787570635301        2.64340505255815
H           -2.68068137694030        0.89297674885025        2.79471919589662
H           -4.41136127348943       -2.39230043191987        1.97993332252368
H           -4.59621951550208       -4.83395980459083        1.91720809632557
H           -0.37598290258451       -5.17094723251142        1.40305783014726
H           -0.17327186571530       -2.70818158487386        1.45065437986408
H           -1.20735663792279        4.63881244198912       -2.30174174463369
H           -0.62393307448684        6.70756490112964       -1.08489787386385
H            1.57179860278649        6.91114953394683        0.01969619122337
H            3.18802615814712        5.04722515822065       -0.08875617741309
H            2.59528077591544        2.97022818390714       -1.28833352264082
H            0.25846349966338        3.23828250904657        1.33440986850729
H           -1.09840650664396        3.05261211172168        0.21453137257847
H           -1.27220886181610        2.52800505008730        1.88881449312874
H           -0.14138660703360        1.32460122153748        3.32764334965496
H            1.40452401806872        0.22057483683729        4.85805303368096
H            3.31092890894109       -1.25940358719741        5.24155475789914
H            5.14877043298116       -2.64479412497817        4.35672645767083
H            5.46989812635885       -2.85615617334039        1.92219037983168
H            4.01473772644083       -1.65925194798266        0.36520862523582
H            0.94726816936958       -1.03052843446393       -3.36651747005574
H            3.14178339875108       -0.32086236944424       -4.17528362573801
H            5.27711821553190        0.80435263013714       -3.78441694496482
H            6.85391191333739        1.91616536695360       -2.24984466145469
H            6.27573224468372        2.18561146032083        0.13068674695159
H            4.16093061632056        1.31670704421600        1.00449300861350
H           -1.35119710838101       -2.41913209653821       -0.86368384679290
H            0.22630695679753       -2.80136528139812       -1.56986717181290
H           -0.94551289924412       -1.82099427770424       -2.47790953549604
