      -----------------------------------------------------------      
     |                   =====================                   |     
     |                           x T B                           |     
     |                   =====================                   |     
     |                         S. Grimme                         |     
     |          Mulliken Center for Theoretical Chemistry        |     
     |                    University of Bonn                     |     
      -----------------------------------------------------------      

   * xtb version 6.7.1 (edcfbbe) compiled by 'conda@3ef47c1a292c' on 2024-11-25

   xtb is free software: you can redistribute it and/or modify it under
   the terms of the GNU Lesser General Public License as published by
   the Free Software Foundation, either version 3 of the License, or
   (at your option) any later version.
   
   xtb is distributed in the hope that it will be useful,
   but WITHOUT ANY WARRANTY; without even the implied warranty of
   MERCHANTABILITY or FITNESS FOR A PARTICULAR PURPOSE.  See the
   GNU Lesser General Public License for more details.
   
   Cite this work as:
   * C. Bannwarth, E. Caldeweyher, S. Ehlert, A. Hansen, P. Pracht,
     J. Seibert, S. Spicher, S. Grimme, WIREs Comput. Mol. Sci., 2020, 11,
     e01493. DOI: 10.1002/wcms.1493
   
   for GFN2-xTB:
   * C. Bannwarth, S. Ehlert and S. Grimme., J. Chem. Theory Comput., 2019,
     15, 1652-1671. DOI: 10.1021/acs.jctc.8b01176
   for GFN1-xTB:
   * S. Grimme, C. Bannwarth, P. Shushkov, J. Chem. Theory Comput., 2017,
     13, 1989-2009. DOI: 10.1021/acs.jctc.7b00118
   for GFN0-xTB:
   * P. Pracht, E. Caldeweyher, S. Ehlert, S. Grimme, ChemRxiv, 2019, preprint.
     DOI: 10.26434/chemrxiv.8326202.v1
   for GFN-FF:
   * S. Spicher and S. Grimme, Angew. Chem. Int. Ed., 2020, 59, 15665-15673.
     DOI: 10.1002/anie.202004239
   
   for ALPB and GBSA implicit solvation:
   * S. Ehlert, M. Stahn, S. Spicher, S. Grimme, J. Chem. Theory Comput.,
     2021, 17, 4250-4261. DOI: 10.1021/acs.jctc.1c00471
   
   for ddCOSMO and CPCM-X implicit solvation:
   * M. Stahn, S. Ehlert, S. Grimme, J. Phys. Chem. A,
     2023, XX, XXXX-XXXX. DOI: 10.1021/acs.jpca.3c04382
   
   for DFT-D4:
   * E. Caldeweyher, C. Bannwarth and S. Grimme, J. Chem. Phys., 2017,
     147, 034112. DOI: 10.1063/1.4993215
   * E. Caldeweyher, S. Ehlert, A. Hansen, H. Neugebauer, S. Spicher,
     C. Bannwarth and S. Grimme, J. Chem. Phys., 2019, 150, 154122.
     DOI: 10.1063/1.5090222
   * E. Caldeweyher, J.-M. Mewes, S. Ehlert and S. Grimme, Phys. Chem. Chem. Phys.
     2020, 22, 8499-8512. DOI: 10.1039/D0CP00502A
   
   for sTDA-xTB:
   * S. Grimme and C. Bannwarth, J. Chem. Phys., 2016, 145, 054103.
     DOI: 10.1063/1.4959605
   
   in the mass-spec context:
   * V. Asgeirsson, C. Bauer and S. Grimme, Chem. Sci., 2017, 8, 4879.
     DOI: 10.1039/c7sc00601b
   * J. Koopman and S. Grimme, ACS Omega 2019, 4, 12, 15120-15133.
     DOI: 10.1021/acsomega.9b02011
   
   for metadynamics refer to:
   * S. Grimme, J. Chem. Theory Comput., 2019, 155, 2847-2862
     DOI: 10.1021/acs.jctc.9b00143
   
   for SPH calculations refer to:
   * S. Spicher and S. Grimme, J. Chem. Theory Comput., 2021, 17, 1701-1714
     DOI: 10.1021/acs.jctc.0c01306
   
   for ONIOM refer to:
   * C. Plett, A. Katbashev, S. Ehlert, S. Grimme, M. Bursch,
     Phys. Chem. Chem. Phys., 2023, 25, 17860-17868. DOI: 10.1039/D3CP02178E
   
   for DIPRO refer to:
   * J. Kohn, N. Gildemeister, S. Grimme, D. Fazzi, A. Hansen,
     J. Chem. Phys., 2023, just accepted.
   
   for PTB refer to:
   * S. Grimme, M. Mueller, A. Hansen, J. Chem. Phys., 2023, 158, 124111.
     DOI: 10.1063/5.0137838
   
   with help from (in alphabetical order)
   P. Atkinson, C. Bannwarth, F. Bohle, G. Brandenburg, E. Caldeweyher
   M. Checinski, S. Dohm, S. Ehlert, S. Ehrlich, I. Gerasimov, C. Hölzer
   A. Katbashev, J. Kohn, J. Koopman, C. Lavigne, S. Lehtola, F. März, M. Müller,
   F. Musil, H. Neugebauer, J. Pisarek, C. Plett, P. Pracht, F. Pultar,
   J. Seibert, P. Shushkov, S. Spicher, M. Stahn, M. Steiner, T. Strunk,
   J. Stückrath, T. Rose, and J. Unsleber
   
 * started run on 2024/12/16 at 20:22:27.396     
   ID    Z sym.   atoms
    1    6 C      1, 3-12, 17-22, 24-29, 31-36, 38-51
    2    8 O      2, 13, 30, 37
    3   15 P      14
    4   34 Se     15
    5   16 S      16
    6    7 N      23
    7    1 H      52-96

           -------------------------------------------------
          |                Calculation Setup                |
           -------------------------------------------------

          program call               : xtb --gfn2 --opt extreme -P 8 --charge 1 molecule.xyz
          hostname                   : node20
          coordinate file            : molecule.xyz
          omp threads                :                     8


           -------------------------------------------------
          |                 G F N 2 - x T B                 |
           -------------------------------------------------

        Reference                      10.1021/acs.jctc.8b01176
      * Hamiltonian:
        H0-scaling (s, p, d)           1.850000    2.230000    2.230000
        zeta-weighting                 0.500000
      * Dispersion:
        s8                             2.700000
        a1                             0.520000
        a2                             5.000000
        s9                             5.000000
      * Repulsion:
        kExp                           1.500000    1.000000
        rExp                           1.000000
      * Coulomb:
        alpha                          2.000000
        third order                    shell-resolved
        anisotropic                    true
        a3                             3.000000
        a5                             4.000000
        cn-shift                       1.200000
        cn-exp                         4.000000
        max-rad                        5.000000


          ...................................................
          :                      SETUP                      :
          :.................................................:
          :  # basis functions                 267          :
          :  # atomic orbitals                 264          :
          :  # shells                          150          :
          :  # electrons                       262          :
          :  max. iterations                   250          :
          :  Hamiltonian                  GFN2-xTB          :
          :  restarted?                      false          :
          :  GBSA solvation                  false          :
          :  PC potential                    false          :
          :  electronic temp.          300.0000000     K    :
          :  accuracy                    1.0000000          :
          :  -> integral cutoff          0.2500000E+02      :
          :  -> integral neglect         0.1000000E-07      :
          :  -> SCF convergence          0.1000000E-05 Eh   :
          :  -> wf. convergence          0.1000000E-03 e    :
          :  Broyden damping             0.4000000          :
          :  net charge                          1          :
          :  unpaired electrons                  0          :
          ...................................................

 iter      E             dE          RMSdq      gap      omega  full diag
   1   -144.6351782 -0.144635E+03  0.513E+00    1.83       0.0  T
   2   -144.8121674 -0.176989E+00  0.289E+00    1.85       1.0  T
   3   -144.8194207 -0.725327E-02  0.123E+00    2.01       1.0  T
   4   -144.8382489 -0.188282E-01  0.509E-01    2.01       1.0  T
   5   -144.8411671 -0.291826E-02  0.221E-01    2.04       1.0  T
   6   -144.8428906 -0.172349E-02  0.100E-01    2.03       1.0  T
   7   -144.8430707 -0.180085E-03  0.622E-02    2.03       1.0  T
   8   -144.8431152 -0.444694E-04  0.461E-02    2.03       1.0  T
   9   -144.8431218 -0.657527E-05  0.280E-02    2.03       1.0  T
  10   -144.8431520 -0.302545E-04  0.122E-02    2.03       1.0  T
  11   -144.8431525 -0.530591E-06  0.614E-03    2.03       1.7  T
  12   -144.8431535 -0.976887E-06  0.204E-03    2.03       5.0  T
  13   -144.8431536 -0.692187E-07  0.114E-03    2.03       9.0  T
  14   -144.8431536 -0.103799E-07  0.548E-04    2.03      18.6  T
  15   -144.8431536 -0.733311E-08  0.253E-04    2.03      40.4  T

   *** convergence criteria satisfied after 15 iterations ***

         #    Occupation            Energy/Eh            Energy/eV
      -------------------------------------------------------------
         1        2.0000           -0.9170597             -24.9545
       ...           ...                  ...                  ...
       125        2.0000           -0.4875560             -13.2671
       126        2.0000           -0.4872976             -13.2600
       127        2.0000           -0.4854350             -13.2094
       128        2.0000           -0.4750165             -12.9259
       129        2.0000           -0.4583292             -12.4718
       130        2.0000           -0.4543861             -12.3645
       131        2.0000           -0.4504806             -12.2582 (HOMO)
       132                         -0.3757914             -10.2258 (LUMO)
       133                         -0.3415540              -9.2942
       134                         -0.3354520              -9.1281
       135                         -0.3315698              -9.0225
       136                         -0.3287634              -8.9461
       ...                                ...                  ...
       264                          3.6368590              98.9640
      -------------------------------------------------------------
                  HL-Gap            0.0746892 Eh            2.0324 eV
             Fermi-level           -0.4131360 Eh          -11.2420 eV

 SCC (total)                   0 d,  0 h,  0 min,  2.621 sec
 SCC setup                      ...        0 min,  0.000 sec (  0.019%)
 Dispersion                     ...        0 min,  0.003 sec (  0.102%)
 classical contributions        ...        0 min,  0.000 sec (  0.006%)
 integral evaluation            ...        0 min,  0.012 sec (  0.445%)
 iterations                     ...        0 min,  2.453 sec ( 93.607%)
 molecular gradient             ...        0 min,  0.127 sec (  4.831%)
 printout                       ...        0 min,  0.026 sec (  0.987%)

         :::::::::::::::::::::::::::::::::::::::::::::::::::::
         ::                     SUMMARY                     ::
         :::::::::::::::::::::::::::::::::::::::::::::::::::::
         :: total energy            -142.527482905723 Eh    ::
         :: gradient norm              1.013525743056 Eh/a0 ::
         :: HOMO-LUMO gap              2.032396070924 eV    ::
         ::.................................................::
         :: SCC energy              -144.837433088038 Eh    ::
         :: -> isotropic ES            0.131573475066 Eh    ::
         :: -> anisotropic ES         -0.001148413813 Eh    ::
         :: -> anisotropic XC          0.064733090884 Eh    ::
         :: -> dispersion             -0.142868591136 Eh    ::
         :: repulsion energy           2.309950182316 Eh    ::
         :: add. restraining           0.000000000000 Eh    ::
         :: total charge               1.000000000000 e     ::
         :::::::::::::::::::::::::::::::::::::::::::::::::::::

      ----------------------------------------------------------- 
     |                   =====================                   |
     |                        A N C O P T                        |
     |                   =====================                   |
     |               Approximate Normal Coordinate               |
     |                Rational Function Optimizer                |
      ----------------------------------------------------------- 
      ----------------------------------------------------------- 
     |                   =====================                   |
     |                        A N C O P T                        |
     |                   =====================                   |
     |               Approximate Normal Coordinate               |
     |                Rational Function Optimizer                |
      ----------------------------------------------------------- 

          ...................................................
          :                      SETUP                      :
          :.................................................:
          :   optimization level           extreme          :
          :   max. optcycles                  1920          :
          :   ANC micro-cycles                  20          :
          :   degrees of freedom               282          :
          :.................................................:
          :   RF solver                   davidson          :
          :   write xtbopt.log                true          :
          :   linear?                        false          :
          :   energy convergence         0.5000000E-07 Eh   :
          :   grad. convergence          0.5000000E-04 Eh/α :
          :   maxmium RF displ.          1.0000000          :
          :   Hlow (freq-cutoff)         0.1000000E-01      :
          :   Hmax (freq-cutoff)         5.0000000          :
          :   S6 in model hess.         20.0000000          :
          ...................................................

generating ANC from exact Hessian ...
Using Lindh-Hessian (1995)
 Shifting diagonal of input Hessian by    1.0502735708933616E-002
 Lowest  eigenvalues of input Hessian
    0.010000    0.000000    0.000000    0.000000    0.000000    0.000000
    0.000000    0.010559    0.010607    0.010696    0.010769    0.010806
    0.010959    0.011002    0.011055    0.011141    0.011369    0.011655
 Highest eigenvalues
    2.072019    2.082753    2.094231    2.116575    2.176575    2.198535


........................................................................
.............................. CYCLE    1 ..............................
........................................................................

 iter      E             dE          RMSdq      gap      omega  full diag
   1   -144.8431536 -0.144843E+03  0.930E-05    2.03       0.0  T
   2   -144.8431536 -0.157883E-09  0.598E-05    2.03     170.7  T
   3   -144.8431536 -0.153506E-09  0.376E-05    2.03     271.4  T
     SCC iter.                  ...        0 min,  0.364 sec
     gradient                   ...        0 min,  0.126 sec
 * total energy  :  -142.5274829 Eh     change       -0.1766466E-08 Eh
   gradient norm :     1.0135247 Eh/α   predicted     0.0000000E+00 (-100.00%)
   displ. norm   :     0.5848632 α      lambda       -0.5672616E+00
   maximum displ.:     0.3035069 α      in ANC's #252, #259, #238, ...

........................................................................
.............................. CYCLE    2 ..............................
........................................................................

 iter      E             dE          RMSdq      gap      omega  full diag
   1   -144.9676024 -0.144968E+03  0.106E+00    1.98       0.0  T
   2   -144.9701162 -0.251384E-02  0.563E-01    2.21       1.0  T
   3   -144.9700367  0.794398E-04  0.217E-01    2.34       1.0  T
   4   -144.9698288  0.207912E-03  0.118E-01    2.39       1.0  T
   5   -144.9706009 -0.772079E-03  0.321E-02    2.38       1.0  T
   6   -144.9706331 -0.321597E-04  0.142E-02    2.38       1.0  T
   7   -144.9706330  0.115020E-06  0.809E-03    2.38       1.3  T
   8   -144.9706359 -0.290044E-05  0.288E-03    2.38       3.5  T
   9   -144.9706359 -0.548202E-07  0.161E-03    2.38       6.3  T
  10   -144.9706360 -0.587913E-07  0.584E-04    2.38      17.5  T
  11   -144.9706360 -0.931200E-08  0.223E-04    2.38      45.8  T
     SCC iter.                  ...        0 min,  1.657 sec
     gradient                   ...        0 min,  0.124 sec
 * total energy  :  -142.7966868 Eh     change       -0.2692039E+00 Eh
   gradient norm :     0.2395293 Eh/α   predicted    -0.3806516E+00 (  41.40%)
   displ. norm   :     0.5610135 α      lambda       -0.1003596E+00
   maximum displ.:     0.1413833 α      in ANC's #56, #138, #53, ...

........................................................................
.............................. CYCLE    3 ..............................
........................................................................

 iter      E             dE          RMSdq      gap      omega  full diag
   1   -145.0300544 -0.145030E+03  0.487E-01    2.38       0.0  T
   2   -145.0306302 -0.575776E-03  0.270E-01    2.46       1.0  T
   3   -145.0304363  0.193857E-03  0.113E-01    2.51       1.0  T
   4   -145.0307371 -0.300824E-03  0.678E-02    2.53       1.0  T
   5   -145.0308313 -0.941364E-04  0.406E-02    2.52       1.0  T
   6   -145.0308630 -0.317611E-04  0.234E-02    2.52       1.0  T
   7   -145.0308649 -0.185828E-05  0.134E-02    2.52       1.0  T
   8   -145.0308695 -0.465703E-05  0.689E-03    2.51       1.5  T
   9   -145.0308701 -0.571822E-06  0.363E-03    2.51       2.8  T
  10   -145.0308704 -0.265352E-06  0.162E-03    2.51       6.3  T
  11   -145.0308704 -0.532996E-07  0.825E-04    2.51      12.4  T
  12   -145.0308704 -0.157304E-07  0.278E-04    2.51      36.7  T
     SCC iter.                  ...        0 min,  1.819 sec
     gradient                   ...        0 min,  0.123 sec
 * total energy  :  -142.8696430 Eh     change       -0.7295619E-01 Eh
   gradient norm :     0.1131076 Eh/α   predicted    -0.6597342E-01 (  -9.57%)
   displ. norm   :     0.5582624 α      lambda       -0.4460277E-01
   maximum displ.:     0.1481632 α      in ANC's #1, #53, #56, ...

........................................................................
.............................. CYCLE    4 ..............................
........................................................................

 iter      E             dE          RMSdq      gap      omega  full diag
   1   -145.0521284 -0.145052E+03  0.477E-01    2.25       0.0  T
   2   -145.0524740 -0.345575E-03  0.244E-01    2.30       1.0  T
   3   -145.0522591  0.214947E-03  0.791E-02    2.33       1.0  T
   4   -145.0525261 -0.267034E-03  0.452E-02    2.34       1.0  T
   5   -145.0525888 -0.627539E-04  0.252E-02    2.33       1.0  T
   6   -145.0526030 -0.141074E-04  0.148E-02    2.33       1.0  T
   7   -145.0526035 -0.539307E-06  0.789E-03    2.33       1.3  T
   8   -145.0526051 -0.159848E-05  0.415E-03    2.33       2.5  T
   9   -145.0526053 -0.238723E-06  0.211E-03    2.33       4.8  T
  10   -145.0526054 -0.391887E-07  0.125E-03    2.33       8.1  T
  11   -145.0526054 -0.316817E-07  0.593E-04    2.33      17.2  T
  12   -145.0526054 -0.746329E-08  0.233E-04    2.33      43.8  T
     SCC iter.                  ...        0 min,  1.858 sec
     gradient                   ...        0 min,  0.126 sec
 * total energy  :  -142.9002929 Eh     change       -0.3064984E-01 Eh
   gradient norm :     0.0395095 Eh/α   predicted    -0.2925189E-01 (  -4.56%)
   displ. norm   :     0.6042098 α      lambda       -0.1609364E-01
   maximum displ.:     0.2461522 α      in ANC's #1, #24, #53, ...

........................................................................
.............................. CYCLE    5 ..............................
........................................................................

 iter      E             dE          RMSdq      gap      omega  full diag
   1   -145.0524619 -0.145052E+03  0.410E-01    2.10       0.0  T
   2   -145.0525803 -0.118437E-03  0.197E-01    2.12       1.0  T
   3   -145.0525431  0.372489E-04  0.452E-02    2.14       1.0  T
   4   -145.0525764 -0.332983E-04  0.286E-02    2.14       1.0  T
   5   -145.0526139 -0.375464E-04  0.115E-02    2.14       1.0  T
   6   -145.0526172 -0.329274E-05  0.734E-03    2.14       1.4  T
   7   -145.0526174 -0.206425E-06  0.438E-03    2.14       2.3  T
   8   -145.0526178 -0.387646E-06  0.186E-03    2.14       5.5  T
   9   -145.0526179 -0.438154E-07  0.106E-03    2.14       9.6  T
  10   -145.0526179 -0.112934E-07  0.517E-04    2.14      19.7  T
  11   -145.0526179 -0.533359E-08  0.289E-04    2.14      35.4  T
     SCC iter.                  ...        0 min,  1.586 sec
     gradient                   ...        0 min,  0.121 sec
 * total energy  :  -142.9123501 Eh     change       -0.1205726E-01 Eh
   gradient norm :     0.0255932 Eh/α   predicted    -0.1098454E-01 (  -8.90%)
   displ. norm   :     0.6497919 α      lambda       -0.9584959E-02
   maximum displ.:     0.2636270 α      in ANC's #1, #24, #18, ...

........................................................................
.............................. CYCLE    6 ..............................
........................................................................

 iter      E             dE          RMSdq      gap      omega  full diag
   1   -145.0534747 -0.145053E+03  0.321E-01    1.99       0.0  T
   2   -145.0535471 -0.723863E-04  0.152E-01    2.00       1.0  T
   3   -145.0535310  0.161677E-04  0.324E-02    2.00       1.0  T
   4   -145.0535519 -0.208935E-04  0.178E-02    2.00       1.0  T
   5   -145.0535631 -0.111972E-04  0.638E-03    2.00       1.6  T
   6   -145.0535653 -0.224985E-05  0.294E-03    2.00       3.5  T
   7   -145.0535654 -0.661030E-07  0.193E-03    2.00       5.3  T
   8   -145.0535654 -0.500529E-07  0.962E-04    2.00      10.6  T
   9   -145.0535654 -0.146312E-07  0.552E-04    2.00      18.5  T
     SCC iter.                  ...        0 min,  1.198 sec
     gradient                   ...        0 min,  0.121 sec
 * total energy  :  -142.9200124 Eh     change       -0.7662221E-02 Eh
   gradient norm :     0.0242025 Eh/α   predicted    -0.6816022E-02 ( -11.04%)
   displ. norm   :     0.6895889 α      lambda       -0.7178897E-02
   maximum displ.:     0.2962239 α      in ANC's #1, #24, #22, ...

........................................................................
.............................. CYCLE    7 ..............................
........................................................................

 iter      E             dE          RMSdq      gap      omega  full diag
   1   -145.0571605 -0.145057E+03  0.231E-01    1.98       0.0  T
   2   -145.0572035 -0.430417E-04  0.113E-01    1.97       1.0  T
   3   -145.0571874  0.161735E-04  0.251E-02    1.96       1.0  T
   4   -145.0572088 -0.214027E-04  0.119E-02    1.96       1.0  T
   5   -145.0572138 -0.506680E-05  0.506E-03    1.96       2.0  T
   6   -145.0572148 -0.100446E-05  0.213E-03    1.96       4.8  T
   7   -145.0572149 -0.464640E-07  0.143E-03    1.96       7.2  T
   8   -145.0572149 -0.477407E-07  0.763E-04    1.96      13.4  T
   9   -145.0572149 -0.559251E-08  0.459E-04    1.96      22.2  T
     SCC iter.                  ...        0 min,  1.387 sec
     gradient                   ...        0 min,  0.138 sec
 * total energy  :  -142.9259094 Eh     change       -0.5897074E-02 Eh
   gradient norm :     0.0203666 Eh/α   predicted    -0.5296358E-02 ( -10.19%)
   displ. norm   :     0.7112237 α      lambda       -0.5628850E-02
   maximum displ.:     0.2857734 α      in ANC's #1, #22, #18, ...

........................................................................
.............................. CYCLE    8 ..............................
........................................................................

 iter      E             dE          RMSdq      gap      omega  full diag
   1   -145.0635434 -0.145064E+03  0.180E-01    2.01       0.0  T
   2   -145.0635714 -0.280129E-04  0.920E-02    1.99       1.0  T
   3   -145.0635600  0.114163E-04  0.209E-02    1.98       1.0  T
   4   -145.0635761 -0.160504E-04  0.108E-02    1.98       1.0  T
   5   -145.0635790 -0.292834E-05  0.591E-03    1.98       1.7  T
   6   -145.0635794 -0.404217E-06  0.354E-03    1.98       2.9  T
   7   -145.0635795 -0.777010E-07  0.223E-03    1.98       4.6  T
   8   -145.0635796 -0.109485E-06  0.111E-03    1.98       9.2  T
   9   -145.0635796 -0.171472E-07  0.462E-04    1.98      22.1  T
  10   -145.0635796 -0.345997E-08  0.195E-04    1.98      52.3  T
     SCC iter.                  ...        0 min,  1.504 sec
     gradient                   ...        0 min,  0.122 sec
 * total energy  :  -142.9306023 Eh     change       -0.4692872E-02 Eh
   gradient norm :     0.0169821 Eh/α   predicted    -0.4238077E-02 (  -9.69%)
   displ. norm   :     0.7301235 α      lambda       -0.4424920E-02
   maximum displ.:     0.3014390 α      in ANC's #1, #22, #18, ...

........................................................................
.............................. CYCLE    9 ..............................
........................................................................

 iter      E             dE          RMSdq      gap      omega  full diag
   1   -145.0698015 -0.145070E+03  0.160E-01    2.01       0.0  T
   2   -145.0698239 -0.223949E-04  0.844E-02    2.00       1.0  T
   3   -145.0698162  0.772249E-05  0.183E-02    1.98       1.0  T
   4   -145.0698270 -0.107663E-04  0.104E-02    1.98       1.0  T
   5   -145.0698298 -0.286868E-05  0.561E-03    1.98       1.8  T
   6   -145.0698301 -0.303173E-06  0.360E-03    1.98       2.8  T
   7   -145.0698302 -0.735258E-07  0.220E-03    1.98       4.6  T
   8   -145.0698303 -0.112496E-06  0.100E-03    1.98      10.2  T
   9   -145.0698303 -0.197718E-07  0.414E-04    1.98      24.7  T
  10   -145.0698303 -0.212697E-08  0.174E-04    1.98      58.6  T
     SCC iter.                  ...        0 min,  1.618 sec
     gradient                   ...        0 min,  0.136 sec
 * total energy  :  -142.9343228 Eh     change       -0.3720499E-02 Eh
   gradient norm :     0.0159638 Eh/α   predicted    -0.3391880E-02 (  -8.83%)
   displ. norm   :     0.7476899 α      lambda       -0.3519463E-02
   maximum displ.:     0.3057119 α      in ANC's #1, #22, #19, ...

........................................................................
.............................. CYCLE   10 ..............................
........................................................................

 iter      E             dE          RMSdq      gap      omega  full diag
   1   -145.0740966 -0.145074E+03  0.157E-01    2.00       0.0  T
   2   -145.0741146 -0.180413E-04  0.809E-02    1.99       1.0  T
   3   -145.0741076  0.706919E-05  0.168E-02    1.98       1.0  T
   4   -145.0741147 -0.714609E-05  0.962E-03    1.98       1.1  T
   5   -145.0741193 -0.462243E-05  0.425E-03    1.98       2.4  T
   6   -145.0741196 -0.290909E-06  0.261E-03    1.98       3.9  T
   7   -145.0741197 -0.493302E-07  0.181E-03    1.98       5.6  T
   8   -145.0741197 -0.485493E-07  0.729E-04    1.98      14.0  T
   9   -145.0741197 -0.908898E-08  0.341E-04    1.98      29.9  T
     SCC iter.                  ...        0 min,  1.323 sec
     gradient                   ...        0 min,  0.124 sec
 * total energy  :  -142.9373392 Eh     change       -0.3016405E-02 Eh
   gradient norm :     0.0160089 Eh/α   predicted    -0.2743506E-02 (  -9.05%)
   displ. norm   :     0.7660854 α      lambda       -0.3008385E-02
   maximum displ.:     0.3323944 α      in ANC's #1, #19, #10, ...

........................................................................
.............................. CYCLE   11 ..............................
........................................................................

 iter      E             dE          RMSdq      gap      omega  full diag
   1   -145.0768466 -0.145077E+03  0.146E-01    2.01       0.0  T
   2   -145.0768611 -0.145507E-04  0.752E-02    2.00       1.0  T
   3   -145.0768539  0.716253E-05  0.163E-02    1.99       1.0  T
   4   -145.0768605 -0.655855E-05  0.878E-03    1.99       1.2  T
   5   -145.0768649 -0.441622E-05  0.337E-03    1.99       3.0  T
   6   -145.0768653 -0.357410E-06  0.177E-03    1.99       5.8  T
   7   -145.0768653 -0.383868E-07  0.125E-03    1.99       8.2  T
   8   -145.0768653 -0.122467E-07  0.587E-04    1.99      17.4  T
   9   -145.0768653 -0.416495E-08  0.307E-04    1.99      33.2  T
     SCC iter.                  ...        0 min,  1.477 sec
     gradient                   ...        0 min,  0.125 sec
 * total energy  :  -142.9399695 Eh     change       -0.2630291E-02 Eh
   gradient norm :     0.0149928 Eh/α   predicted    -0.2386991E-02 (  -9.25%)
   displ. norm   :     0.7848767 α      lambda       -0.2738673E-02
   maximum displ.:     0.3286346 α      in ANC's #1, #10, #19, ...

........................................................................
.............................. CYCLE   12 ..............................
........................................................................

 iter      E             dE          RMSdq      gap      omega  full diag
   1   -145.0793025 -0.145079E+03  0.146E-01    2.03       0.0  T
   2   -145.0793191 -0.166335E-04  0.741E-02    2.03       1.0  T
   3   -145.0793107  0.839603E-05  0.185E-02    2.02       1.0  T
   4   -145.0793193 -0.859510E-05  0.935E-03    2.02       1.1  T
   5   -145.0793231 -0.378172E-05  0.352E-03    2.02       2.9  T
   6   -145.0793238 -0.687155E-06  0.123E-03    2.02       8.3  T
   7   -145.0793238 -0.348099E-07  0.751E-04    2.02      13.6  T
   8   -145.0793238 -0.400442E-08  0.382E-04    2.02      26.8  T
     SCC iter.                  ...        0 min,  1.243 sec
     gradient                   ...        0 min,  0.123 sec
 * total energy  :  -142.9423891 Eh     change       -0.2419562E-02 Eh
   gradient norm :     0.0130696 Eh/α   predicted    -0.2212894E-02 (  -8.54%)
   displ. norm   :     0.7940104 α      lambda       -0.2528278E-02
   maximum displ.:     0.3413095 α      in ANC's #1, #10, #19, ...

........................................................................
.............................. CYCLE   13 ..............................
........................................................................

 iter      E             dE          RMSdq      gap      omega  full diag
   1   -145.0814061 -0.145081E+03  0.132E-01    2.05       0.0  T
   2   -145.0814233 -0.171223E-04  0.698E-02    2.05       1.0  T
   3   -145.0814136  0.962391E-05  0.193E-02    2.04       1.0  T
   4   -145.0814245 -0.108354E-04  0.929E-03    2.04       1.1  T
   5   -145.0814273 -0.278776E-05  0.374E-03    2.04       2.7  T
   6   -145.0814281 -0.818288E-06  0.126E-03    2.04       8.1  T
   7   -145.0814281 -0.318214E-07  0.809E-04    2.04      12.6  T
   8   -145.0814281 -0.382030E-08  0.437E-04    2.04      23.3  T
     SCC iter.                  ...        0 min,  1.117 sec
     gradient                   ...        0 min,  0.124 sec
 * total energy  :  -142.9446091 Eh     change       -0.2220088E-02 Eh
   gradient norm :     0.0107469 Eh/α   predicted    -0.2061121E-02 (  -7.16%)
   displ. norm   :     0.7956481 α      lambda       -0.2274181E-02
   maximum displ.:     0.3361076 α      in ANC's #10, #1, #19, ...

........................................................................
.............................. CYCLE   14 ..............................
........................................................................

 iter      E             dE          RMSdq      gap      omega  full diag
   1   -145.0840814 -0.145084E+03  0.141E-01    2.01       0.0  T
   2   -145.0841039 -0.224661E-04  0.723E-02    2.01       1.0  T
   3   -145.0840951  0.872834E-05  0.211E-02    2.01       1.0  T
   4   -145.0841058 -0.106693E-04  0.112E-02    2.01       1.0  T
   5   -145.0841090 -0.319246E-05  0.447E-03    2.01       2.3  T
   6   -145.0841100 -0.104719E-05  0.201E-03    2.01       5.1  T
   7   -145.0841101 -0.354030E-07  0.141E-03    2.01       7.2  T
   8   -145.0841101 -0.166897E-07  0.676E-04    2.01      15.1  T
   9   -145.0841101 -0.100268E-07  0.320E-04    2.01      31.9  T
     SCC iter.                  ...        0 min,  1.403 sec
     gradient                   ...        0 min,  0.123 sec
 * total energy  :  -142.9465624 Eh     change       -0.1953239E-02 Eh
   gradient norm :     0.0109644 Eh/α   predicted    -0.1856935E-02 (  -4.93%)
   displ. norm   :     0.7852371 α      lambda       -0.2023349E-02
   maximum displ.:     0.3310608 α      in ANC's #10, #1, #19, ...

........................................................................
.............................. CYCLE   15 ..............................
........................................................................

 iter      E             dE          RMSdq      gap      omega  full diag
   1   -145.0857399 -0.145086E+03  0.122E-01    2.00       0.0  T
   2   -145.0857561 -0.162046E-04  0.650E-02    2.00       1.0  T
   3   -145.0857492  0.689747E-05  0.172E-02    2.00       1.0  T
   4   -145.0857574 -0.815470E-05  0.895E-03    2.00       1.1  T
   5   -145.0857597 -0.228698E-05  0.315E-03    2.00       3.2  T
   6   -145.0857602 -0.528204E-06  0.142E-03    2.00       7.2  T
   7   -145.0857602 -0.270023E-07  0.999E-04    2.00      10.2  T
   8   -145.0857602 -0.913701E-08  0.538E-04    2.00      19.0  T
     SCC iter.                  ...        0 min,  1.116 sec
     gradient                   ...        0 min,  0.129 sec
 * total energy  :  -142.9482326 Eh     change       -0.1670181E-02 Eh
   gradient norm :     0.0112404 Eh/α   predicted    -0.1635471E-02 (  -2.08%)
   displ. norm   :     0.7580039 α      lambda       -0.1746430E-02
   maximum displ.:     0.3225017 α      in ANC's #10, #1, #11, ...

........................................................................
.............................. CYCLE   16 ..............................
........................................................................

 iter      E             dE          RMSdq      gap      omega  full diag
   1   -145.0875913 -0.145088E+03  0.126E-01    2.00       0.0  T
   2   -145.0876077 -0.163758E-04  0.641E-02    2.00       1.0  T
   3   -145.0876057  0.197407E-05  0.157E-02    2.00       1.0  T
   4   -145.0876072 -0.151349E-05  0.872E-03    2.00       1.2  T
   5   -145.0876107 -0.354856E-05  0.278E-03    2.00       3.7  T
   6   -145.0876111 -0.337089E-06  0.136E-03    2.00       7.5  T
   7   -145.0876111 -0.395499E-07  0.797E-04    2.00      12.8  T
   8   -145.0876111 -0.160755E-07  0.409E-04    2.00      25.0  T
     SCC iter.                  ...        0 min,  1.160 sec
     gradient                   ...        0 min,  0.123 sec
 * total energy  :  -142.9496845 Eh     change       -0.1451941E-02 Eh
   gradient norm :     0.0100286 Eh/α   predicted    -0.1374939E-02 (  -5.30%)
   displ. norm   :     0.7365039 α      lambda       -0.1588999E-02
   maximum displ.:     0.3029739 α      in ANC's #10, #3, #11, ...

........................................................................
.............................. CYCLE   17 ..............................
........................................................................

 iter      E             dE          RMSdq      gap      omega  full diag
   1   -145.0935583 -0.145094E+03  0.131E-01    2.02       0.0  T
   2   -145.0935788 -0.205078E-04  0.651E-02    2.02       1.0  T
   3   -145.0935780  0.765865E-06  0.167E-02    2.02       1.0  T
   4   -145.0935783 -0.222532E-06  0.816E-03    2.02       1.3  T
   5   -145.0935817 -0.346403E-05  0.317E-03    2.02       3.2  T
   6   -145.0935823 -0.624568E-06  0.101E-03    2.02      10.1  T
   7   -145.0935824 -0.458553E-07  0.499E-04    2.02      20.5  T
   8   -145.0935824 -0.740869E-08  0.247E-04    2.02      41.2  T
     SCC iter.                  ...        0 min,  1.289 sec
     gradient                   ...        0 min,  0.126 sec
 * total energy  :  -142.9509867 Eh     change       -0.1302151E-02 Eh
   gradient norm :     0.0109772 Eh/α   predicted    -0.1225468E-02 (  -5.89%)
   displ. norm   :     0.7293245 α      lambda       -0.1644478E-02
   maximum displ.:     0.2750940 α      in ANC's #3, #10, #11, ...

........................................................................
.............................. CYCLE   18 ..............................
........................................................................

 iter      E             dE          RMSdq      gap      omega  full diag
   1   -145.0924980 -0.145092E+03  0.129E-01    2.12       0.0  T
   2   -145.0925202 -0.221792E-04  0.667E-02    2.11       1.0  T
   3   -145.0925162  0.397292E-05  0.196E-02    2.11       1.0  T
   4   -145.0925193 -0.308237E-05  0.985E-03    2.11       1.0  T
   5   -145.0925240 -0.476419E-05  0.373E-03    2.11       2.7  T
   6   -145.0925246 -0.596579E-06  0.149E-03    2.11       6.9  T
   7   -145.0925247 -0.612256E-07  0.963E-04    2.11      10.6  T
   8   -145.0925247 -0.775836E-08  0.540E-04    2.11      18.9  T
     SCC iter.                  ...        0 min,  0.911 sec
     gradient                   ...        0 min,  0.129 sec
 * total energy  :  -142.9522628 Eh     change       -0.1276148E-02 Eh
   gradient norm :     0.0104066 Eh/α   predicted    -0.1259602E-02 (  -1.30%)
   displ. norm   :     0.6854167 α      lambda       -0.1413751E-02
   maximum displ.:     0.2862073 α      in ANC's #3, #7, #11, ...

........................................................................
.............................. CYCLE   19 ..............................
........................................................................

 iter      E             dE          RMSdq      gap      omega  full diag
   1   -145.0960659 -0.145096E+03  0.128E-01    2.17       0.0  T
   2   -145.0960868 -0.208368E-04  0.664E-02    2.17       1.0  T
   3   -145.0960832  0.352645E-05  0.203E-02    2.17       1.0  T
   4   -145.0960856 -0.233188E-05  0.106E-02    2.17       1.0  T
   5   -145.0960905 -0.495550E-05  0.428E-03    2.17       2.4  T
   6   -145.0960913 -0.759608E-06  0.191E-03    2.17       5.3  T
   7   -145.0960913 -0.700398E-07  0.131E-03    2.17       7.8  T
   8   -145.0960914 -0.928159E-08  0.733E-04    2.17      13.9  T
   9   -145.0960914 -0.116364E-07  0.330E-04    2.17      30.9  T
     SCC iter.                  ...        0 min,  1.373 sec
     gradient                   ...        0 min,  0.126 sec
 * total energy  :  -142.9534281 Eh     change       -0.1165264E-02 Eh
   gradient norm :     0.0112259 Eh/α   predicted    -0.1038964E-02 ( -10.84%)
   displ. norm   :     0.6943330 α      lambda       -0.1373709E-02
   maximum displ.:     0.3099631 α      in ANC's #3, #7, #11, ...

........................................................................
.............................. CYCLE   20 ..............................
........................................................................

 iter      E             dE          RMSdq      gap      omega  full diag
   1   -145.0962349 -0.145096E+03  0.141E-01    2.08       0.0  T
   2   -145.0962617 -0.267969E-04  0.719E-02    2.09       1.0  T
   3   -145.0962612  0.453664E-06  0.200E-02    2.10       1.0  T
   4   -145.0962611  0.801495E-07  0.997E-03    2.10       1.0  T
   5   -145.0962654 -0.426666E-05  0.405E-03    2.10       2.5  T
   6   -145.0962664 -0.969107E-06  0.136E-03    2.10       7.5  T
   7   -145.0962664 -0.695821E-07  0.830E-04    2.10      12.3  T
   8   -145.0962664 -0.570904E-08  0.505E-04    2.10      20.2  T
     SCC iter.                  ...        0 min,  1.340 sec
     gradient                   ...        0 min,  0.124 sec
 * total energy  :  -142.9544829 Eh     change       -0.1054797E-02 Eh
   gradient norm :     0.0126356 Eh/α   predicted    -0.1017991E-02 (  -3.49%)
   displ. norm   :     0.6802577 α      lambda       -0.1295491E-02
   maximum displ.:     0.3049138 α      in ANC's #3, #7, #11, ...
 * RMSD in coord.:     1.0452757 α      energy gain  -0.4270000E+00 Eh

generating ANC from exact Hessian ...
Using Lindh-Hessian (1995)
 Shifting diagonal of input Hessian by    1.0070010713860858E-002
 Lowest  eigenvalues of input Hessian
    0.010000    0.000000    0.000000    0.000000    0.000000    0.000000
    0.000000    0.010168    0.010230    0.010278    0.010394    0.010421
    0.010531    0.010537    0.010726    0.010780    0.010841    0.011135
 Highest eigenvalues
    2.036395    2.049434    2.120548    2.145958    2.149750    2.303912


........................................................................
.............................. CYCLE   21 ..............................
........................................................................

 iter      E             dE          RMSdq      gap      omega  full diag
   1   -145.0972878 -0.145097E+03  0.113E-01    2.16       0.0  T
   2   -145.0972977 -0.993013E-05  0.610E-02    2.15       1.0  T
   3   -145.0972967  0.102088E-05  0.147E-02    2.15       1.0  T
   4   -145.0972967 -0.795039E-07  0.831E-03    2.14       1.2  T
   5   -145.0973001 -0.335356E-05  0.280E-03    2.15       3.6  T
   6   -145.0973003 -0.164995E-06  0.175E-03    2.15       5.8  T
   7   -145.0973003 -0.156880E-07  0.119E-03    2.15       8.6  T
   8   -145.0973003 -0.264491E-07  0.525E-04    2.15      19.5  T
   9   -145.0973003 -0.324803E-08  0.275E-04    2.15      37.1  T
     SCC iter.                  ...        0 min,  1.269 sec
     gradient                   ...        0 min,  0.120 sec
 * total energy  :  -142.9554576 Eh     change       -0.9746947E-03 Eh
   gradient norm :     0.0128450 Eh/α   predicted     0.0000000E+00 (-100.00%)
   displ. norm   :     0.1625405 α      lambda       -0.8213712E-03
   maximum displ.:     0.0727737 α      in ANC's #29, #11, #34, ...

........................................................................
.............................. CYCLE   22 ..............................
........................................................................

 iter      E             dE          RMSdq      gap      omega  full diag
   1   -145.0987955 -0.145099E+03  0.132E-01    2.11       0.0  T
   2   -145.0988218 -0.262862E-04  0.599E-02    2.11       1.0  T
   3   -145.0988201  0.174908E-05  0.179E-02    2.11       1.0  T
   4   -145.0988237 -0.361681E-05  0.121E-02    2.11       1.0  T
   5   -145.0988269 -0.321530E-05  0.559E-03    2.11       1.8  T
   6   -145.0988277 -0.814009E-06  0.253E-03    2.11       4.0  T
   7   -145.0988278 -0.619212E-07  0.157E-03    2.11       6.5  T
   8   -145.0988278 -0.418223E-07  0.671E-04    2.11      15.2  T
   9   -145.0988278 -0.693387E-08  0.416E-04    2.11      24.5  T
     SCC iter.                  ...        0 min,  1.550 sec
     gradient                   ...        0 min,  0.132 sec
 * total energy  :  -142.9560246 Eh     change       -0.5669914E-03 Eh
   gradient norm :     0.0059790 Eh/α   predicted    -0.4215381E-03 ( -25.65%)
   displ. norm   :     0.2613916 α      lambda       -0.6049629E-03
   maximum displ.:     0.0979440 α      in ANC's #29, #34, #11, ...

........................................................................
.............................. CYCLE   23 ..............................
........................................................................

 iter      E             dE          RMSdq      gap      omega  full diag
   1   -145.1003265 -0.145100E+03  0.131E-01    2.13       0.0  T
   2   -145.1003455 -0.190098E-04  0.596E-02    2.13       1.0  T
   3   -145.1003410  0.451650E-05  0.152E-02    2.12       1.0  T
   4   -145.1003474 -0.638175E-05  0.785E-03    2.13       1.3  T
   5   -145.1003498 -0.240886E-05  0.315E-03    2.13       3.2  T
   6   -145.1003501 -0.342058E-06  0.127E-03    2.13       8.1  T
   7   -145.1003502 -0.285654E-07  0.832E-04    2.13      12.3  T
   8   -145.1003502 -0.628168E-08  0.434E-04    2.13      23.5  T
     SCC iter.                  ...        0 min,  1.462 sec
     gradient                   ...        0 min,  0.127 sec
 * total energy  :  -142.9564752 Eh     change       -0.4506410E-03 Eh
   gradient norm :     0.0049427 Eh/α   predicted    -0.3231487E-03 ( -28.29%)
   displ. norm   :     0.4048809 α      lambda       -0.6086212E-03
   maximum displ.:     0.1410435 α      in ANC's #34, #8, #11, ...

........................................................................
.............................. CYCLE   24 ..............................
........................................................................

 iter      E             dE          RMSdq      gap      omega  full diag
   1   -145.0993756 -0.145099E+03  0.149E-01    2.09       0.0  T
   2   -145.0993945 -0.188794E-04  0.680E-02    2.10       1.0  T
   3   -145.0993913  0.321667E-05  0.157E-02    2.09       1.0  T
   4   -145.0993962 -0.493697E-05  0.812E-03    2.10       1.3  T
   5   -145.0993984 -0.218416E-05  0.314E-03    2.09       3.2  T
   6   -145.0993989 -0.515843E-06  0.108E-03    2.10       9.5  T
   7   -145.0993989 -0.278120E-07  0.655E-04    2.10      15.6  T
   8   -145.0993989 -0.558657E-08  0.304E-04    2.10      33.6  T
     SCC iter.                  ...        0 min,  1.355 sec
     gradient                   ...        0 min,  0.126 sec
 * total energy  :  -142.9569478 Eh     change       -0.4725899E-03 Eh
   gradient norm :     0.0068057 Eh/α   predicted    -0.3541969E-03 ( -25.05%)
   displ. norm   :     0.5183254 α      lambda       -0.6472668E-03
   maximum displ.:     0.1793961 α      in ANC's #34, #8, #12, ...

........................................................................
.............................. CYCLE   25 ..............................
........................................................................

 iter      E             dE          RMSdq      gap      omega  full diag
   1   -145.0968880 -0.145097E+03  0.113E-01    2.12       0.0  T
   2   -145.0968987 -0.106646E-04  0.571E-02    2.12       1.0  T
   3   -145.0968969  0.182349E-05  0.126E-02    2.12       1.0  T
   4   -145.0968985 -0.158405E-05  0.694E-03    2.12       1.5  T
   5   -145.0969008 -0.236035E-05  0.214E-03    2.12       4.8  T
   6   -145.0969011 -0.297451E-06  0.722E-04    2.12      14.1  T
   7   -145.0969011 -0.136117E-07  0.397E-04    2.12      25.7  T
     SCC iter.                  ...        0 min,  1.193 sec
     gradient                   ...        0 min,  0.133 sec
 * total energy  :  -142.9573992 Eh     change       -0.4513870E-03 Eh
   gradient norm :     0.0101130 Eh/α   predicted    -0.4105828E-03 (  -9.04%)
   displ. norm   :     0.4041107 α      lambda       -0.5199856E-03
   maximum displ.:     0.1500829 α      in ANC's #8, #12, #2, ...

........................................................................
.............................. CYCLE   26 ..............................
........................................................................

 iter      E             dE          RMSdq      gap      omega  full diag
   1   -145.0972255 -0.145097E+03  0.760E-02    2.14       0.0  T
   2   -145.0972316 -0.605204E-05  0.418E-02    2.13       1.0  T
   3   -145.0972306  0.965915E-06  0.943E-03    2.13       1.1  T
   4   -145.0972313 -0.739960E-06  0.560E-03    2.13       1.8  T
   5   -145.0972325 -0.116602E-05  0.242E-03    2.13       4.2  T
   6   -145.0972328 -0.282868E-06  0.124E-03    2.13       8.2  T
   7   -145.0972328 -0.216219E-07  0.928E-04    2.13      11.0  T
   8   -145.0972328 -0.849604E-08  0.406E-04    2.13      25.2  T
     SCC iter.                  ...        0 min,  1.532 sec
     gradient                   ...        0 min,  0.121 sec
 * total energy  :  -142.9578127 Eh     change       -0.4135251E-03 Eh
   gradient norm :     0.0083475 Eh/α   predicted    -0.3025572E-03 ( -26.83%)
   displ. norm   :     0.4570684 α      lambda       -0.6174548E-03
   maximum displ.:     0.1820837 α      in ANC's #8, #12, #2, ...

........................................................................
.............................. CYCLE   27 ..............................
........................................................................

 iter      E             dE          RMSdq      gap      omega  full diag
   1   -145.1004270 -0.145100E+03  0.929E-02    2.17       0.0  T
   2   -145.1004363 -0.929604E-05  0.465E-02    2.17       1.0  T
   3   -145.1004349  0.141229E-05  0.136E-02    2.17       1.0  T
   4   -145.1004359 -0.105119E-05  0.709E-03    2.17       1.4  T
   5   -145.1004377 -0.177446E-05  0.263E-03    2.17       3.9  T
   6   -145.1004380 -0.308135E-06  0.111E-03    2.17       9.2  T
   7   -145.1004380 -0.238204E-07  0.731E-04    2.17      14.0  T
   8   -145.1004381 -0.398029E-08  0.377E-04    2.17      27.1  T
     SCC iter.                  ...        0 min,  1.220 sec
     gradient                   ...        0 min,  0.123 sec
 * total energy  :  -142.9582418 Eh     change       -0.4291218E-03 Eh
   gradient norm :     0.0067984 Eh/α   predicted    -0.3732371E-03 ( -13.02%)
   displ. norm   :     0.5924209 α      lambda       -0.5154030E-03
   maximum displ.:     0.2369934 α      in ANC's #8, #11, #12, ...

........................................................................
.............................. CYCLE   28 ..............................
........................................................................

 iter      E             dE          RMSdq      gap      omega  full diag
   1   -145.0963668 -0.145096E+03  0.106E-01    2.12       0.0  T
   2   -145.0963794 -0.125476E-04  0.555E-02    2.12       1.0  T
   3   -145.0963780  0.135834E-05  0.134E-02    2.12       1.0  T
   4   -145.0963783 -0.303564E-06  0.694E-03    2.12       1.5  T
   5   -145.0963815 -0.319506E-05  0.225E-03    2.12       4.5  T
   6   -145.0963818 -0.247281E-06  0.727E-04    2.12      14.0  T
   7   -145.0963818 -0.374745E-07  0.335E-04    2.12      30.5  T
     SCC iter.                  ...        0 min,  1.056 sec
     gradient                   ...        0 min,  0.122 sec
 * total energy  :  -142.9585999 Eh     change       -0.3581164E-03 Eh
   gradient norm :     0.0091370 Eh/α   predicted    -0.3481471E-03 (  -2.78%)
   displ. norm   :     0.4173503 α      lambda       -0.4437982E-03
   maximum displ.:     0.1788054 α      in ANC's #8, #11, #2, ...

........................................................................
.............................. CYCLE   29 ..............................
........................................................................

 iter      E             dE          RMSdq      gap      omega  full diag
   1   -145.0993264 -0.145099E+03  0.777E-02    2.10       0.0  T
   2   -145.0993315 -0.511329E-05  0.392E-02    2.11       1.0  T
   3   -145.0993294  0.209757E-05  0.107E-02    2.11       1.0  T
   4   -145.0993304 -0.102129E-05  0.591E-03    2.11       1.7  T
   5   -145.0993329 -0.252641E-05  0.152E-03    2.11       6.7  T
   6   -145.0993330 -0.536822E-07  0.610E-04    2.11      16.7  T
   7   -145.0993330 -0.178350E-07  0.316E-04    2.11      32.3  T
     SCC iter.                  ...        0 min,  0.934 sec
     gradient                   ...        0 min,  0.124 sec
 * total energy  :  -142.9589524 Eh     change       -0.3524671E-03 Eh
   gradient norm :     0.0073657 Eh/α   predicted    -0.2605535E-03 ( -26.08%)
   displ. norm   :     0.5670346 α      lambda       -0.5477906E-03
   maximum displ.:     0.2509308 α      in ANC's #11, #8, #2, ...

........................................................................
.............................. CYCLE   30 ..............................
........................................................................

 iter      E             dE          RMSdq      gap      omega  full diag
   1   -145.0997895 -0.145100E+03  0.944E-02    2.14       0.0  T
   2   -145.0997970 -0.750315E-05  0.508E-02    2.14       1.0  T
   3   -145.0997917  0.531514E-05  0.134E-02    2.14       1.0  T
   4   -145.0997973 -0.564587E-05  0.660E-03    2.14       1.5  T
   5   -145.0997993 -0.193456E-05  0.206E-03    2.14       4.9  T
   6   -145.0997995 -0.210843E-06  0.976E-04    2.14      10.5  T
   7   -145.0997995 -0.164340E-07  0.615E-04    2.14      16.6  T
     SCC iter.                  ...        0 min,  0.836 sec
     gradient                   ...        0 min,  0.122 sec
 * total energy  :  -142.9593914 Eh     change       -0.4389638E-03 Eh
   gradient norm :     0.0055886 Eh/α   predicted    -0.3619611E-03 ( -17.54%)
   displ. norm   :     0.5696257 α      lambda       -0.5175280E-03
   maximum displ.:     0.2604216 α      in ANC's #11, #8, #2, ...

........................................................................
.............................. CYCLE   31 ..............................
........................................................................

 iter      E             dE          RMSdq      gap      omega  full diag
   1   -145.1023804 -0.145102E+03  0.113E-01    2.13       0.0  T
   2   -145.1023960 -0.155397E-04  0.574E-02    2.14       1.0  T
   3   -145.1023912  0.480158E-05  0.160E-02    2.14       1.0  T
   4   -145.1023980 -0.686042E-05  0.754E-03    2.14       1.4  T
   5   -145.1023998 -0.173072E-05  0.258E-03    2.14       4.0  T
   6   -145.1024001 -0.320988E-06  0.108E-03    2.14       9.4  T
   7   -145.1024001 -0.365478E-07  0.506E-04    2.14      20.2  T
   8   -145.1024001 -0.990082E-08  0.195E-04    2.14      52.2  T
     SCC iter.                  ...        0 min,  1.319 sec
     gradient                   ...        0 min,  0.122 sec
 * total energy  :  -142.9597728 Eh     change       -0.3814194E-03 Eh
   gradient norm :     0.0056784 Eh/α   predicted    -0.3427321E-03 ( -10.14%)
   displ. norm   :     0.6308807 α      lambda       -0.3733124E-03
   maximum displ.:     0.2762818 α      in ANC's #11, #8, #2, ...

........................................................................
.............................. CYCLE   32 ..............................
........................................................................

 iter      E             dE          RMSdq      gap      omega  full diag
   1   -145.0973645 -0.145097E+03  0.117E-01    2.15       0.0  T
   2   -145.0973767 -0.122561E-04  0.611E-02    2.15       1.0  T
   3   -145.0973742  0.252260E-05  0.145E-02    2.16       1.0  T
   4   -145.0973765 -0.234611E-05  0.776E-03    2.16       1.3  T
   5   -145.0973795 -0.295948E-05  0.232E-03    2.16       4.4  T
   6   -145.0973798 -0.284563E-06  0.994E-04    2.16      10.3  T
   7   -145.0973798 -0.257561E-07  0.565E-04    2.16      18.1  T
     SCC iter.                  ...        0 min,  0.814 sec
     gradient                   ...        0 min,  0.124 sec
 * total energy  :  -142.9600147 Eh     change       -0.2419106E-03 Eh
   gradient norm :     0.0079088 Eh/α   predicted    -0.2609471E-03 (   7.87%)
   displ. norm   :     0.4018702 α      lambda       -0.3482568E-03
   maximum displ.:     0.1763374 α      in ANC's #8, #11, #2, ...

........................................................................
.............................. CYCLE   33 ..............................
........................................................................

 iter      E             dE          RMSdq      gap      omega  full diag
   1   -145.1052679 -0.145105E+03  0.776E-02    2.19       0.0  T
   2   -145.1052737 -0.586510E-05  0.399E-02    2.19       1.0  T
   3   -145.1052731  0.672982E-06  0.944E-03    2.19       1.1  T
   4   -145.1052742 -0.110038E-05  0.496E-03    2.19       2.1  T
   5   -145.1052750 -0.849532E-06  0.133E-03    2.19       7.7  T
   6   -145.1052751 -0.622699E-07  0.576E-04    2.19      17.7  T
   7   -145.1052751 -0.549230E-08  0.331E-04    2.19      30.8  T
     SCC iter.                  ...        0 min,  0.852 sec
     gradient                   ...        0 min,  0.127 sec
 * total energy  :  -142.9602265 Eh     change       -0.2118506E-03 Eh
   gradient norm :     0.0063526 Eh/α   predicted    -0.2022511E-03 (  -4.53%)
   displ. norm   :     0.4853391 α      lambda       -0.2652312E-03
   maximum displ.:     0.2338604 α      in ANC's #8, #11, #2, ...

........................................................................
.............................. CYCLE   34 ..............................
........................................................................

 iter      E             dE          RMSdq      gap      omega  full diag
   1   -145.1019243 -0.145102E+03  0.101E-01    2.15       0.0  T
   2   -145.1019329 -0.861136E-05  0.512E-02    2.15       1.0  T
   3   -145.1019327  0.239656E-06  0.112E-02    2.16       1.0  T
   4   -145.1019324  0.243299E-06  0.619E-03    2.16       1.6  T
   5   -145.1019347 -0.224789E-05  0.165E-03    2.16       6.2  T
   6   -145.1019349 -0.198264E-06  0.654E-04    2.16      15.6  T
   7   -145.1019349 -0.249779E-07  0.266E-04    2.16      38.3  T
     SCC iter.                  ...        0 min,  0.955 sec
     gradient                   ...        0 min,  0.126 sec
 * total energy  :  -142.9604225 Eh     change       -0.1959935E-03 Eh
   gradient norm :     0.0062429 Eh/α   predicted    -0.1638559E-03 ( -16.40%)
   displ. norm   :     0.4582191 α      lambda       -0.3502061E-03
   maximum displ.:     0.2217896 α      in ANC's #8, #2, #12, ...

........................................................................
.............................. CYCLE   35 ..............................
........................................................................

 iter      E             dE          RMSdq      gap      omega  full diag
   1   -145.1036233 -0.145104E+03  0.881E-02    2.15       0.0  T
   2   -145.1036309 -0.763862E-05  0.450E-02    2.15       1.0  T
   3   -145.1036284  0.245134E-05  0.109E-02    2.15       1.0  T
   4   -145.1036308 -0.237403E-05  0.615E-03    2.15       1.7  T
   5   -145.1036327 -0.189377E-05  0.142E-03    2.15       7.2  T
   6   -145.1036328 -0.936775E-07  0.685E-04    2.15      14.9  T
   7   -145.1036328 -0.240394E-07  0.423E-04    2.15      24.1  T
     SCC iter.                  ...        0 min,  0.872 sec
     gradient                   ...        0 min,  0.121 sec
 * total energy  :  -142.9606874 Eh     change       -0.2648889E-03 Eh
   gradient norm :     0.0051108 Eh/α   predicted    -0.2118696E-03 ( -20.02%)
   displ. norm   :     0.5167020 α      lambda       -0.2991861E-03
   maximum displ.:     0.2477949 α      in ANC's #8, #2, #12, ...

........................................................................
.............................. CYCLE   36 ..............................
........................................................................

 iter      E             dE          RMSdq      gap      omega  full diag
   1   -145.1029565 -0.145103E+03  0.884E-02    2.17       0.0  T
   2   -145.1029617 -0.512643E-05  0.470E-02    2.17       1.0  T
   3   -145.1029591  0.259960E-05  0.105E-02    2.16       1.0  T
   4   -145.1029610 -0.188821E-05  0.594E-03    2.16       1.7  T
   5   -145.1029632 -0.220310E-05  0.107E-03    2.16       9.6  T
   6   -145.1029632 -0.617450E-07  0.543E-04    2.16      18.8  T
   7   -145.1029632 -0.101011E-07  0.330E-04    2.16      30.9  T
     SCC iter.                  ...        0 min,  0.936 sec
     gradient                   ...        0 min,  0.123 sec
 * total energy  :  -142.9609169 Eh     change       -0.2294891E-03 Eh
   gradient norm :     0.0063200 Eh/α   predicted    -0.1895369E-03 ( -17.41%)
   displ. norm   :     0.5220968 α      lambda       -0.2964587E-03
   maximum displ.:     0.2529613 α      in ANC's #8, #2, #11, ...

........................................................................
.............................. CYCLE   37 ..............................
........................................................................

 iter      E             dE          RMSdq      gap      omega  full diag
   1   -145.1049929 -0.145105E+03  0.944E-02    2.16       0.0  T
   2   -145.1049986 -0.577999E-05  0.483E-02    2.16       1.0  T
   3   -145.1049953  0.333443E-05  0.111E-02    2.16       1.0  T
   4   -145.1049982 -0.288360E-05  0.637E-03    2.16       1.6  T
   5   -145.1050004 -0.223503E-05  0.143E-03    2.16       7.1  T
   6   -145.1050006 -0.146104E-06  0.669E-04    2.16      15.2  T
   7   -145.1050006 -0.155750E-07  0.336E-04    2.16      30.4  T
     SCC iter.                  ...        0 min,  1.046 sec
     gradient                   ...        0 min,  0.121 sec
 * total energy  :  -142.9611274 Eh     change       -0.2104677E-03 Eh
   gradient norm :     0.0061305 Eh/α   predicted    -0.1886412E-03 ( -10.37%)
   displ. norm   :     0.6011574 α      lambda       -0.2630530E-03
   maximum displ.:     0.2984742 α      in ANC's #8, #11, #2, ...

........................................................................
.............................. CYCLE   38 ..............................
........................................................................

 iter      E             dE          RMSdq      gap      omega  full diag
   1   -145.1009173 -0.145101E+03  0.105E-01    2.16       0.0  T
   2   -145.1009243 -0.699420E-05  0.558E-02    2.16       1.0  T
   3   -145.1009186  0.570281E-05  0.130E-02    2.16       1.0  T
   4   -145.1009240 -0.540115E-05  0.706E-03    2.16       1.4  T
   5   -145.1009266 -0.264653E-05  0.189E-03    2.16       5.4  T
   6   -145.1009269 -0.268565E-06  0.789E-04    2.16      12.9  T
   7   -145.1009269 -0.169316E-07  0.440E-04    2.16      23.2  T
     SCC iter.                  ...        0 min,  0.879 sec
     gradient                   ...        0 min,  0.126 sec
 * total energy  :  -142.9613104 Eh     change       -0.1830418E-03 Eh
   gradient norm :     0.0061637 Eh/α   predicted    -0.1790608E-03 (  -2.17%)
   displ. norm   :     0.3988943 α      lambda       -0.2768286E-03
   maximum displ.:     0.1786478 α      in ANC's #5, #8, #10, ...

........................................................................
.............................. CYCLE   39 ..............................
........................................................................

 iter      E             dE          RMSdq      gap      omega  full diag
   1   -145.1083353 -0.145108E+03  0.609E-02    2.20       0.0  T
   2   -145.1083394 -0.410010E-05  0.337E-02    2.20       1.0  T
   3   -145.1083356  0.379976E-05  0.896E-03    2.20       1.1  T
   4   -145.1083396 -0.400914E-05  0.395E-03    2.20       2.6  T
   5   -145.1083406 -0.985197E-06  0.143E-03    2.20       7.1  T
   6   -145.1083407 -0.102143E-06  0.616E-04    2.20      16.6  T
   7   -145.1083407 -0.134188E-07  0.345E-04    2.20      29.6  T
     SCC iter.                  ...        0 min,  0.908 sec
     gradient                   ...        0 min,  0.122 sec
 * total energy  :  -142.9614499 Eh     change       -0.1395031E-03 Eh
   gradient norm :     0.0070351 Eh/α   predicted    -0.1604421E-03 (  15.01%)
   displ. norm   :     0.4827472 α      lambda       -0.2350639E-03
   maximum displ.:     0.2631812 α      in ANC's #8, #11, #2, ...

........................................................................
.............................. CYCLE   40 ..............................
........................................................................

 iter      E             dE          RMSdq      gap      omega  full diag
   1   -145.1036222 -0.145104E+03  0.901E-02    2.17       0.0  T
   2   -145.1036294 -0.721407E-05  0.462E-02    2.17       1.0  T
   3   -145.1036269  0.249747E-05  0.109E-02    2.18       1.0  T
   4   -145.1036295 -0.264253E-05  0.605E-03    2.18       1.7  T
   5   -145.1036310 -0.147925E-05  0.195E-03    2.18       5.2  T
   6   -145.1036313 -0.318782E-06  0.690E-04    2.18      14.8  T
   7   -145.1036313 -0.137283E-07  0.353E-04    2.18      28.9  T
     SCC iter.                  ...        0 min,  0.966 sec
     gradient                   ...        0 min,  0.125 sec
 * total energy  :  -142.9615934 Eh     change       -0.1434893E-03 Eh
   gradient norm :     0.0062909 Eh/α   predicted    -0.1449267E-03 (   1.00%)
   displ. norm   :     0.3323029 α      lambda       -0.1710170E-03
   maximum displ.:     0.1768453 α      in ANC's #8, #5, #3, ...

........................................................................
.............................. CYCLE   41 ..............................
........................................................................

 iter      E             dE          RMSdq      gap      omega  full diag
   1   -145.1044115 -0.145104E+03  0.551E-02    2.17       0.0  T
   2   -145.1044134 -0.190181E-05  0.291E-02    2.17       1.0  T
   3   -145.1044130  0.436226E-06  0.620E-03    2.17       1.6  T
   4   -145.1044133 -0.304032E-06  0.349E-03    2.17       2.9  T
   5   -145.1044139 -0.628373E-06  0.841E-04    2.17      12.1  T
   6   -145.1044139 -0.534078E-07  0.367E-04    2.17      27.8  T
     SCC iter.                  ...        0 min,  0.781 sec
     gradient                   ...        0 min,  0.121 sec
 * total energy  :  -142.9616990 Eh     change       -0.1055866E-03 Eh
   gradient norm :     0.0063230 Eh/α   predicted    -0.9495236E-04 ( -10.07%)
   displ. norm   :     0.3752049 α      lambda       -0.2270585E-03
   maximum displ.:     0.1929232 α      in ANC's #8, #5, #3, ...

........................................................................
.............................. CYCLE   42 ..............................
........................................................................

 iter      E             dE          RMSdq      gap      omega  full diag
   1   -145.1057113 -0.145106E+03  0.530E-02    2.18       0.0  T
   2   -145.1057128 -0.148764E-05  0.299E-02    2.18       1.0  T
   3   -145.1057120  0.771122E-06  0.582E-03    2.18       1.8  T
   4   -145.1057130 -0.100783E-05  0.268E-03    2.18       3.8  T
   5   -145.1057132 -0.189769E-06  0.770E-04    2.18      13.3  T
   6   -145.1057132 -0.190556E-07  0.405E-04    2.18      25.2  T
     SCC iter.                  ...        0 min,  0.807 sec
     gradient                   ...        0 min,  0.121 sec
 * total energy  :  -142.9618662 Eh     change       -0.1671714E-03 Eh
   gradient norm :     0.0049615 Eh/α   predicted    -0.1295177E-03 ( -22.52%)
   displ. norm   :     0.4668552 α      lambda       -0.2119886E-03
   maximum displ.:     0.2333838 α      in ANC's #8, #5, #3, ...
 * RMSD in coord.:     0.8530780 α      energy gain  -0.7383310E-02 Eh

generating ANC from exact Hessian ...
Using Lindh-Hessian (1995)
 Shifting diagonal of input Hessian by    1.0071827025899198E-002
 Lowest  eigenvalues of input Hessian
    0.010000    0.000000    0.000000    0.000000    0.000000    0.000000
    0.000000    0.010173    0.010186    0.010197    0.010242    0.010407
    0.010449    0.010540    0.010699    0.010790    0.010881    0.011083
 Highest eigenvalues
    2.037655    2.048538    2.092110    2.147451    2.150202    2.235611


........................................................................
.............................. CYCLE   43 ..............................
........................................................................

 iter      E             dE          RMSdq      gap      omega  full diag
   1   -145.1058237 -0.145106E+03  0.627E-02    2.20       0.0  T
   2   -145.1058250 -0.129323E-05  0.359E-02    2.20       1.0  T
   3   -145.1058242  0.789317E-06  0.551E-03    2.20       1.9  T
   4   -145.1058250 -0.844864E-06  0.276E-03    2.20       3.7  T
   5   -145.1058254 -0.369100E-06  0.893E-04    2.20      11.4  T
   6   -145.1058254 -0.439151E-07  0.434E-04    2.20      23.5  T
     SCC iter.                  ...        0 min,  0.862 sec
     gradient                   ...        0 min,  0.125 sec
 * total energy  :  -142.9620136 Eh     change       -0.1474464E-03 Eh
   gradient norm :     0.0057702 Eh/α   predicted     0.0000000E+00 (-100.00%)
   displ. norm   :     0.0540639 α      lambda       -0.8813802E-04
   maximum displ.:     0.0201255 α      in ANC's #4, #14, #7, ...

........................................................................
.............................. CYCLE   44 ..............................
........................................................................

 iter      E             dE          RMSdq      gap      omega  full diag
   1   -145.1057613 -0.145106E+03  0.174E-02    2.18       0.0  T
   2   -145.1057618 -0.463579E-06  0.910E-03    2.18       1.1  T
   3   -145.1057614  0.399419E-06  0.323E-03    2.18       3.2  T
   4   -145.1057619 -0.507516E-06  0.144E-03    2.19       7.1  T
   5   -145.1057620 -0.549634E-07  0.573E-04    2.19      17.8  T
   6   -145.1057620 -0.138066E-07  0.328E-04    2.19      31.2  T
     SCC iter.                  ...        0 min,  0.761 sec
     gradient                   ...        0 min,  0.127 sec
 * total energy  :  -142.9620786 Eh     change       -0.6496751E-04 Eh
   gradient norm :     0.0025656 Eh/α   predicted    -0.4468838E-04 ( -31.21%)
   displ. norm   :     0.1011068 α      lambda       -0.7678752E-04
   maximum displ.:     0.0408604 α      in ANC's #7, #14, #17, ...

........................................................................
.............................. CYCLE   45 ..............................
........................................................................

 iter      E             dE          RMSdq      gap      omega  full diag
   1   -145.1062041 -0.145106E+03  0.210E-02    2.20       0.0  T
   2   -145.1062048 -0.634882E-06  0.121E-02    2.20       1.0  T
   3   -145.1062040  0.741845E-06  0.367E-03    2.20       2.8  T
   4   -145.1062049 -0.871862E-06  0.116E-03    2.20       8.8  T
   5   -145.1062050 -0.632882E-07  0.516E-04    2.20      19.8  T
   6   -145.1062050 -0.100985E-07  0.251E-04    2.20      40.7  T
     SCC iter.                  ...        0 min,  0.849 sec
     gradient                   ...        0 min,  0.129 sec
 * total energy  :  -142.9621266 Eh     change       -0.4796420E-04 Eh
   gradient norm :     0.0021390 Eh/α   predicted    -0.3878770E-04 ( -19.13%)
   displ. norm   :     0.0963910 α      lambda       -0.3858299E-04
   maximum displ.:     0.0427075 α      in ANC's #7, #14, #6, ...

........................................................................
.............................. CYCLE   46 ..............................
........................................................................

 iter      E             dE          RMSdq      gap      omega  full diag
   1   -145.1063524 -0.145106E+03  0.180E-02    2.19       0.0  T
   2   -145.1063526 -0.208944E-06  0.992E-03    2.19       1.0  T
   3   -145.1063524  0.210315E-06  0.246E-03    2.19       4.1  T
   4   -145.1063526 -0.212547E-06  0.116E-03    2.19       8.8  T
   5   -145.1063527 -0.724194E-07  0.365E-04    2.19      28.0  T
   6   -145.1063527 -0.477172E-08  0.217E-04    2.19      46.9  T
     SCC iter.                  ...        0 min,  0.812 sec
     gradient                   ...        0 min,  0.125 sec
 * total energy  :  -142.9621568 Eh     change       -0.3021363E-04 Eh
   gradient norm :     0.0028059 Eh/α   predicted    -0.1947249E-04 ( -35.55%)
   displ. norm   :     0.1766336 α      lambda       -0.6109512E-04
   maximum displ.:     0.0811535 α      in ANC's #7, #6, #14, ...

........................................................................
.............................. CYCLE   47 ..............................
........................................................................

 iter      E             dE          RMSdq      gap      omega  full diag
   1   -145.1064993 -0.145106E+03  0.298E-02    2.19       0.0  T
   2   -145.1064996 -0.311845E-06  0.172E-02    2.19       1.0  T
   3   -145.1064992  0.402440E-06  0.280E-03    2.19       3.6  T
   4   -145.1064996 -0.419270E-06  0.131E-03    2.19       7.8  T
   5   -145.1064997 -0.100128E-06  0.395E-04    2.19      25.9  T
   6   -145.1064997 -0.374391E-08  0.203E-04    2.19      50.4  T
     SCC iter.                  ...        0 min,  0.908 sec
     gradient                   ...        0 min,  0.123 sec
 * total energy  :  -142.9622024 Eh     change       -0.4564377E-04 Eh
   gradient norm :     0.0026902 Eh/α   predicted    -0.3150206E-04 ( -30.98%)
   displ. norm   :     0.1772487 α      lambda       -0.4851744E-04
   maximum displ.:     0.0874175 α      in ANC's #7, #6, #14, ...

........................................................................
.............................. CYCLE   48 ..............................
........................................................................

 iter      E             dE          RMSdq      gap      omega  full diag
   1   -145.1063552 -0.145106E+03  0.302E-02    2.19       0.0  T
   2   -145.1063554 -0.250838E-06  0.175E-02    2.19       1.0  T
   3   -145.1063552  0.253367E-06  0.227E-03    2.19       4.5  T
   4   -145.1063555 -0.292289E-06  0.104E-03    2.19       9.8  T
   5   -145.1063555 -0.529452E-07  0.270E-04    2.19      37.8  T
   6   -145.1063555 -0.193111E-08  0.135E-04    2.19      75.5  T
     SCC iter.                  ...        0 min,  0.835 sec
     gradient                   ...        0 min,  0.126 sec
 * total energy  :  -142.9622383 Eh     change       -0.3584411E-04 Eh
   gradient norm :     0.0020884 Eh/α   predicted    -0.2502235E-04 ( -30.19%)
   displ. norm   :     0.1494833 α      lambda       -0.3585166E-04
   maximum displ.:     0.0788027 α      in ANC's #7, #6, #2, ...

........................................................................
.............................. CYCLE   49 ..............................
........................................................................

 iter      E             dE          RMSdq      gap      omega  full diag
   1   -145.1062595 -0.145106E+03  0.258E-02    2.19       0.0  T
   2   -145.1062596 -0.180335E-06  0.151E-02    2.19       1.0  T
   3   -145.1062593  0.355357E-06  0.227E-03    2.19       4.5  T
   4   -145.1062597 -0.427708E-06  0.589E-04    2.19      17.3  T
   5   -145.1062597 -0.812426E-08  0.283E-04    2.19      36.1  T
     SCC iter.                  ...        0 min,  0.517 sec
     gradient                   ...        0 min,  0.121 sec
 * total energy  :  -142.9622669 Eh     change       -0.2860941E-04 Eh
   gradient norm :     0.0018054 Eh/α   predicted    -0.1832668E-04 ( -35.94%)
   displ. norm   :     0.2423161 α      lambda       -0.3913672E-04
   maximum displ.:     0.1318374 α      in ANC's #7, #6, #2, ...

........................................................................
.............................. CYCLE   50 ..............................
........................................................................

 iter      E             dE          RMSdq      gap      omega  full diag
   1   -145.1059537 -0.145106E+03  0.428E-02    2.19       0.0  T
   2   -145.1059544 -0.664832E-06  0.248E-02    2.19       1.0  T
   3   -145.1059529  0.144436E-05  0.477E-03    2.19       2.1  T
   4   -145.1059546 -0.164609E-05  0.143E-03    2.19       7.1  T
   5   -145.1059547 -0.101870E-06  0.486E-04    2.19      21.0  T
   6   -145.1059547 -0.797093E-08  0.244E-04    2.19      41.8  T
     SCC iter.                  ...        0 min,  0.752 sec
     gradient                   ...        0 min,  0.125 sec
 * total energy  :  -142.9623093 Eh     change       -0.4240344E-04 Eh
   gradient norm :     0.0022581 Eh/α   predicted    -0.2007944E-04 ( -52.65%)
   displ. norm   :     0.1370369 α      lambda       -0.3052106E-04
   maximum displ.:     0.0755726 α      in ANC's #7, #6, #2, ...

........................................................................
.............................. CYCLE   51 ..............................
........................................................................

 iter      E             dE          RMSdq      gap      omega  full diag
   1   -145.1057778 -0.145106E+03  0.249E-02    2.19       0.0  T
   2   -145.1057780 -0.216491E-06  0.141E-02    2.19       1.0  T
   3   -145.1057776  0.377177E-06  0.274E-03    2.19       3.7  T
   4   -145.1057780 -0.386738E-06  0.121E-03    2.19       8.4  T
   5   -145.1057781 -0.841097E-07  0.319E-04    2.19      32.0  T
   6   -145.1057781 -0.447110E-08  0.151E-04    2.19      67.8  T
     SCC iter.                  ...        0 min,  0.881 sec
     gradient                   ...        0 min,  0.121 sec
 * total energy  :  -142.9623364 Eh     change       -0.2708484E-04 Eh
   gradient norm :     0.0019309 Eh/α   predicted    -0.1555221E-04 ( -42.58%)
   displ. norm   :     0.3663787 α      lambda       -0.5541445E-04
   maximum displ.:     0.1997076 α      in ANC's #7, #6, #2, ...

........................................................................
.............................. CYCLE   52 ..............................
........................................................................

 iter      E             dE          RMSdq      gap      omega  full diag
   1   -145.1054131 -0.145105E+03  0.660E-02    2.19       0.0  T
   2   -145.1054146 -0.150595E-05  0.372E-02    2.19       1.0  T
   3   -145.1054125  0.218184E-05  0.716E-03    2.19       1.4  T
   4   -145.1054145 -0.208406E-05  0.351E-03    2.19       2.9  T
   5   -145.1054152 -0.706821E-06  0.924E-04    2.19      11.0  T
   6   -145.1054153 -0.279108E-07  0.480E-04    2.19      21.3  T
     SCC iter.                  ...        0 min,  0.914 sec
     gradient                   ...        0 min,  0.125 sec
 * total energy  :  -142.9623950 Eh     change       -0.5860454E-04 Eh
   gradient norm :     0.0020859 Eh/α   predicted    -0.2937068E-04 ( -49.88%)
   displ. norm   :     0.1995960 α      lambda       -0.3267746E-04
   maximum displ.:     0.1088679 α      in ANC's #7, #2, #6, ...

........................................................................
.............................. CYCLE   53 ..............................
........................................................................

 iter      E             dE          RMSdq      gap      omega  full diag
   1   -145.1052222 -0.145105E+03  0.343E-02    2.19       0.0  T
   2   -145.1052224 -0.251023E-06  0.197E-02    2.20       1.0  T
   3   -145.1052220  0.382712E-06  0.288E-03    2.19       3.5  T
   4   -145.1052224 -0.407933E-06  0.133E-03    2.20       7.7  T
   5   -145.1052225 -0.926034E-07  0.295E-04    2.20      34.6  T
   6   -145.1052225 -0.170724E-08  0.171E-04    2.20      59.5  T
     SCC iter.                  ...        0 min,  0.788 sec
     gradient                   ...        0 min,  0.123 sec
 * total energy  :  -142.9624239 Eh     change       -0.2893798E-04 Eh
   gradient norm :     0.0020594 Eh/α   predicted    -0.1699017E-04 ( -41.29%)
   displ. norm   :     0.3702821 α      lambda       -0.6443907E-04
   maximum displ.:     0.1993506 α      in ANC's #7, #2, #6, ...

........................................................................
.............................. CYCLE   54 ..............................
........................................................................

 iter      E             dE          RMSdq      gap      omega  full diag
   1   -145.1052670 -0.145105E+03  0.620E-02    2.19       0.0  T
   2   -145.1052677 -0.697000E-06  0.358E-02    2.20       1.0  T
   3   -145.1052665  0.118178E-05  0.495E-03    2.20       2.1  T
   4   -145.1052678 -0.135356E-05  0.206E-03    2.20       5.0  T
   5   -145.1052680 -0.184939E-06  0.534E-04    2.20      19.1  T
   6   -145.1052680 -0.437831E-08  0.318E-04    2.20      32.1  T
     SCC iter.                  ...        0 min,  0.752 sec
     gradient                   ...        0 min,  0.127 sec
 * total energy  :  -142.9624762 Eh     change       -0.5233350E-04 Eh
[...]
    50   6 C        2.923    -0.034    28.846     8.808
    51   6 C        2.919    -0.053    29.309     8.878
    52   1 H        0.925     0.074     2.045     2.236
    53   1 H        0.924     0.041     2.430     2.438
    54   1 H        0.924     0.050     2.323     2.384
    55   1 H        0.926     0.042     2.416     2.431
    56   1 H        0.926     0.036     2.505     2.475
    57   1 H        0.926     0.062     2.170     2.303
    58   1 H        0.926     0.061     2.193     2.316
    59   1 H        0.926     0.055     2.264     2.353
    60   1 H        0.926     0.059     2.214     2.327
    61   1 H        0.926     0.059     2.206     2.322
    62   1 H        0.926     0.062     2.181     2.309
    63   1 H        0.925     0.055     2.264     2.353
    64   1 H        0.924     0.046     2.369     2.407
    65   1 H        0.925     0.053     2.280     2.361
    66   1 H        0.925     0.060     2.198     2.318
    67   1 H        0.925     0.054     2.269     2.356
    68   1 H        0.925     0.054     2.276     2.359
    69   1 H        0.925     0.064     2.151     2.294
    70   1 H        0.925     0.058     2.227     2.333
    71   1 H        0.923     0.032     2.565     2.505
    72   1 H        0.925     0.062     2.174     2.306
    73   1 H        0.925     0.060     2.196     2.318
    74   1 H        0.925     0.060     2.196     2.318
    75   1 H        0.924     0.041     2.435     2.440
    76   1 H        0.925     0.060     2.203     2.321
    77   1 H        0.925     0.063     2.164     2.300
    78   1 H        0.926     0.046     2.376     2.410
    79   1 H        0.926     0.049     2.329     2.386
    80   1 H        0.924     0.048     2.343     2.394
    81   1 H        0.925     0.072     2.067     2.248
    82   1 H        0.924     0.048     2.341     2.393
    83   1 H        0.926     0.048     2.347     2.395
    84   1 H        0.926     0.030     2.587     2.515
    85   1 H        0.926     0.059     2.206     2.323
    86   1 H        0.926     0.057     2.232     2.337
    87   1 H        0.924     0.041     2.438     2.442
    88   1 H        0.925     0.051     2.311     2.377
    89   1 H        0.924     0.061     2.192     2.315
    90   1 H        0.925     0.059     2.215     2.328
    91   1 H        0.925     0.051     2.312     2.378
    92   1 H        0.924     0.038     2.474     2.460
    93   1 H        0.925     0.056     2.243     2.342
    94   1 H        0.924     0.060     2.198     2.319
    95   1 H        0.926     0.047     2.359     2.402
    96   1 H        0.926     0.063     2.164     2.300

 Mol. C6AA /au·bohr⁶  :     120835.240695
 Mol. C8AA /au·bohr⁸  :    3283726.295714
 Mol. α(0) /au        :        551.447812


Wiberg/Mayer (AO) data.
largest (>0.10) Wiberg bond orders for each atom

 ---------------------------------------------------------------------------
     #   Z sym  total        # sym  WBO       # sym  WBO       # sym  WBO
 ---------------------------------------------------------------------------
     1   6 C    3.940 --     2 O    0.979    52 H    0.978    53 H    0.977
                            54 H    0.976
     2   8 O    2.256 --     3 C    1.089     1 C    0.979
     3   6 C    3.933 --     4 C    1.363    51 C    1.330     2 O    1.089
     4   6 C    3.987 --     5 C    1.444     3 C    1.363    55 H    0.965
     5   6 C    3.990 --     4 C    1.444     6 C    1.392    56 H    0.968
                            51 C    0.102
     6   6 C    3.987 --     5 C    1.392    50 C    1.356     7 C    1.046
     7   6 C    3.984 --     8 C    1.394    12 C    1.332     6 C    1.046
     8   6 C    3.982 --     9 C    1.435     7 C    1.394    57 H    0.966
                            11 C    0.101
     9   6 C    3.987 --     8 C    1.435    10 C    1.429    58 H    0.966
    10   6 C    3.978 --     9 C    1.429    11 C    1.348    47 C    1.016
    11   6 C    3.982 --    12 C    1.407    10 C    1.348    45 C    0.991
                             8 C    0.101
    12   6 C    3.876 --    11 C    1.407     7 C    1.332    13 O    0.892
    13   8 O    2.415 --    14 P    1.286    12 C    0.892
    14  15 P    5.032 --    13 O    1.286    30 O    1.269    23 N    1.189
                            15 Se   0.932
    15  34 Se   2.611 --    16 S    1.317    14 P    0.932
    16  16 S    2.488 --    15 Se   1.317    17 C    0.956
    17   6 C    3.949 --    22 C    1.410    18 C    1.399    16 S    0.956
                            20 C    0.103
    18   6 C    3.985 --    19 C    1.440    17 C    1.399    59 H    0.965
                            21 C    0.109
    19   6 C    3.986 --    18 C    1.440    20 C    1.436    60 H    0.967
                            22 C    0.109
    20   6 C    3.983 --    19 C    1.436    21 C    1.435    61 H    0.968
                            17 C    0.103
    21   6 C    3.989 --    22 C    1.437    20 C    1.435    62 H    0.966
                            18 C    0.109
    22   6 C    3.990 --    21 C    1.437    17 C    1.410    63 H    0.949
                            19 C    0.109
    23   7 N    3.344 --    14 P    1.189    27 C    0.945    24 C    0.929
    24   6 C    3.954 --    25 C    1.006    26 C    1.000    64 H    0.944
                            23 N    0.929
    25   6 C    3.990 --    24 C    1.006    65 H    0.981    66 H    0.980
                            67 H    0.980
    26   6 C    3.984 --    24 C    1.000    70 H    0.980    69 H    0.980
                            68 H    0.979
    27   6 C    3.961 --    28 C    1.006    29 C    1.005    23 N    0.945
                            71 H    0.940
    28   6 C    3.988 --    27 C    1.006    72 H    0.981    73 H    0.980
                            74 H    0.979
    29   6 C    3.991 --    27 C    1.005    76 H    0.979    77 H    0.979
                            75 H    0.966
    30   8 O    2.400 --    14 P    1.269    31 C    0.885
    31   6 C    3.873 --    44 C    1.402    32 C    1.335    30 O    0.885
    32   6 C    3.982 --    41 C    1.392    31 C    1.335    33 C    1.044
    33   6 C    3.986 --    34 C    1.382    40 C    1.373    32 C    1.044
    34   6 C    3.988 --    35 C    1.459    33 C    1.382    78 H    0.968
                            39 C    0.103
    35   6 C    3.987 --    34 C    1.459    36 C    1.358    79 H    0.965
    36   6 C    3.933 --    35 C    1.358    39 C    1.337    37 O    1.087
    37   8 O    2.251 --    36 C    1.087    38 C    0.977
    38   6 C    3.938 --    81 H    0.979    37 O    0.977    82 H    0.977
                            80 H    0.976
    39   6 C    3.987 --    40 C    1.479    36 C    1.337    83 H    0.965
                            34 C    0.103
    40   6 C    3.990 --    39 C    1.479    33 C    1.373    84 H    0.947
    41   6 C    3.982 --    42 C    1.436    32 C    1.392    85 H    0.966
                            44 C    0.100
    42   6 C    3.987 --    41 C    1.436    43 C    1.427    86 H    0.966
    43   6 C    3.977 --    42 C    1.427    44 C    1.348    49 C    1.015
    44   6 C    3.980 --    31 C    1.402    43 C    1.348    45 C    0.986
                            41 C    0.100
    45   6 C    3.987 --    11 C    0.991    44 C    0.986    48 C    0.960
                            46 C    0.954
    46   6 C    3.992 --    47 C    1.002    87 H    0.979    88 H    0.977
                            45 C    0.954
    47   6 C    3.994 --    10 C    1.016    46 C    1.002    90 H    0.967
                            89 H    0.956
    48   6 C    3.993 --    49 C    1.002    92 H    0.979    91 H    0.977
                            45 C    0.960
    49   6 C    3.994 --    43 C    1.015    48 C    1.002    93 H    0.965
                            94 H    0.957
    50   6 C    3.989 --    51 C    1.488     6 C    1.356    95 H    0.964
    51   6 C    3.987 --    50 C    1.488     3 C    1.330    96 H    0.966
                             5 C    0.102
    52   1 H    0.994 --     1 C    0.978
    53   1 H    0.998 --     1 C    0.977
    54   1 H    0.997 --     1 C    0.976
    55   1 H    0.998 --     4 C    0.965
    56   1 H    0.999 --     5 C    0.968
    57   1 H    0.995 --     8 C    0.966
    58   1 H    0.995 --     9 C    0.966
    59   1 H    0.997 --    18 C    0.965
    60   1 H    0.996 --    19 C    0.967
    61   1 H    0.995 --    20 C    0.968
    62   1 H    0.996 --    21 C    0.966
    63   1 H    0.997 --    22 C    0.949
    64   1 H    0.998 --    24 C    0.944
    65   1 H    0.997 --    25 C    0.981
    66   1 H    0.996 --    25 C    0.980
    67   1 H    0.997 --    25 C    0.980
    68   1 H    0.997 --    26 C    0.979
    69   1 H    0.996 --    26 C    0.980
    70   1 H    0.995 --    26 C    0.980
    71   1 H    0.999 --    27 C    0.940
    72   1 H    0.996 --    28 C    0.981
    73   1 H    0.996 --    28 C    0.980
    74   1 H    0.996 --    28 C    0.979
    75   1 H    0.998 --    29 C    0.966
    76   1 H    0.996 --    29 C    0.979
    77   1 H    0.996 --    29 C    0.979
    78   1 H    0.998 --    34 C    0.968
    79   1 H    0.997 --    35 C    0.965
    80   1 H    0.997 --    38 C    0.976
    81   1 H    0.994 --    38 C    0.979
    82   1 H    0.997 --    38 C    0.977
    83   1 H    0.997 --    39 C    0.965
    84   1 H    0.998 --    40 C    0.947
    85   1 H    0.995 --    41 C    0.966
    86   1 H    0.996 --    42 C    0.966
    87   1 H    0.998 --    46 C    0.979
    88   1 H    0.997 --    46 C    0.977
    89   1 H    0.995 --    47 C    0.956
    90   1 H    0.995 --    47 C    0.967
    91   1 H    0.997 --    48 C    0.977
    92   1 H    0.999 --    48 C    0.979
    93   1 H    0.995 --    49 C    0.965
    94   1 H    0.995 --    49 C    0.957
    95   1 H    0.997 --    50 C    0.964
    96   1 H    0.995 --    51 C    0.966
 ---------------------------------------------------------------------------

Topologies differ in total number of bonds
Writing topology from bond orders to xtbtopo.mol

molecular dipole:
                 x           y           z       tot (Debye)
 q only:        0.371       0.138       0.699
   full:        0.448      -0.457       0.757       2.518
molecular quadrupole (traceless):
                xx          xy          yy          xz          yz          zz
 q only:        7.717       2.052      17.842      -3.811      14.031     -25.559
  q+dip:       12.817       2.664      14.677      -9.008      16.694     -27.494
   full:       11.625       3.352      13.401      -8.722      15.278     -25.026

           -------------------------------------------------
          |                Geometry Summary                 |
           -------------------------------------------------

      molecular mass/u    :      781.8212383
   center of mass at/Å    :       -0.1382276       0.1504217      -0.4580395
  moments of inertia/u·Å² :        0.8105061E+04   0.8789720E+04   0.1316764E+05
rotational constants/cm⁻¹ :        0.2079890E-02   0.1917881E-02   0.1280232E-02

 * 94 selected distances

     #   Z          #   Z                                           value/Å
     1   6 C        2   8 O                                       1.4093998
     2   8 O        3   6 C                                       1.3515223
     3   6 C        4   6 C                                       1.3925081
     4   6 C        5   6 C                                       1.3839602
     5   6 C        6   6 C                                       1.3904716
     7   6 C        8   6 C                                       1.3924908
     8   6 C        9   6 C                                       1.3847934
     9   6 C       10   6 C                                       1.3799369
    10   6 C       11   6 C                                       1.3971972
     7   6 C       12   6 C                                       1.3996729
    11   6 C       12   6 C                                       1.3778439
    12   6 C       13   8 O                                       1.4105842
    13   8 O       14  15 P                                       1.5857587
    14  15 P       15  34 Se                                      2.2645162 (max)
    15  34 Se      16  16 S                                       2.1463882
    17   6 C       18   6 C                                       1.3871947
    18   6 C       19   6 C                                       1.3841928
    19   6 C       20   6 C                                       1.3852463
    20   6 C       21   6 C                                       1.3852852
    17   6 C       22   6 C                                       1.3841344
    21   6 C       22   6 C                                       1.3844424
    14  15 P       23   7 N                                       1.6530419
    23   7 N       24   6 C                                       1.4776093
    24   6 C       25   6 C                                       1.5226913
    24   6 C       26   6 C                                       1.5273969
    23   7 N       27   6 C                                       1.4737383
    27   6 C       28   6 C                                       1.5216567
    27   6 C       29   6 C                                       1.5255841
    14  15 P       30   8 O                                       1.5910235
    30   8 O       31   6 C                                       1.4136945
    31   6 C       32   6 C                                       1.4012357
    33   6 C       34   6 C                                       1.3937698
    34   6 C       35   6 C                                       1.3816666
    35   6 C       36   6 C                                       1.3929793
    36   6 C       37   8 O                                       1.3525440
    37   8 O       38   6 C                                       1.4109679
    36   6 C       39   6 C                                       1.3966570
    33   6 C       40   6 C                                       1.3931051
    39   6 C       40   6 C                                       1.3762808
    32   6 C       41   6 C                                       1.3955944
    41   6 C       42   6 C                                       1.3848843
    42   6 C       43   6 C                                       1.3796267
    31   6 C       44   6 C                                       1.3815503
    43   6 C       44   6 C                                       1.3973032
    46   6 C       47   6 C                                       1.5329659
    48   6 C       49   6 C                                       1.5360802
     6   6 C       50   6 C                                       1.3971379
     3   6 C       51   6 C                                       1.3989788
    50   6 C       51   6 C                                       1.3752575
     1   6 C       52   1 H                                       1.0882717
     1   6 C       53   1 H                                       1.0948259
     1   6 C       54   1 H                                       1.0938690
     4   6 C       55   1 H                                       1.0785110
     5   6 C       56   1 H                                       1.0804783
     8   6 C       57   1 H                                       1.0786149
     9   6 C       58   1 H                                       1.0787836
    18   6 C       59   1 H                                       1.0788853
    19   6 C       60   1 H                                       1.0789046
    20   6 C       61   1 H                                       1.0786417
    21   6 C       62   1 H                                       1.0792757
    22   6 C       63   1 H                                       1.0823187
    24   6 C       64   1 H                                       1.0965679
    25   6 C       65   1 H                                       1.0867489
    25   6 C       66   1 H                                       1.0872426
    25   6 C       67   1 H                                       1.0860123
    26   6 C       68   1 H                                       1.0859813
    26   6 C       69   1 H                                       1.0843673
    26   6 C       70   1 H                                       1.0871147
    27   6 C       71   1 H                                       1.1013012
    28   6 C       72   1 H                                       1.0856696
    28   6 C       73   1 H                                       1.0875657
    28   6 C       74   1 H                                       1.0852235
    29   6 C       75   1 H                                       1.0907345
    29   6 C       76   1 H                                       1.0868203
    29   6 C       77   1 H                                       1.0849283
    34   6 C       78   1 H                                       1.0796693
    35   6 C       79   1 H                                       1.0780581
    38   6 C       80   1 H                                       1.0939110
    38   6 C       81   1 H                                       1.0883376
    38   6 C       82   1 H                                       1.0937716
    39   6 C       83   1 H                                       1.0786790
    40   6 C       84   1 H                                       1.0770602 (min)
    41   6 C       85   1 H                                       1.0788129
    42   6 C       86   1 H                                       1.0787820
    46   6 C       87   1 H                                       1.0918984
    46   6 C       88   1 H                                       1.0867854
    47   6 C       89   1 H                                       1.0923921
    47   6 C       90   1 H                                       1.0892072
    48   6 C       91   1 H                                       1.0871457
    48   6 C       92   1 H                                       1.0920756
    49   6 C       93   1 H                                       1.0900176
    49   6 C       94   1 H                                       1.0918170
    50   6 C       95   1 H                                       1.0803119
    51   6 C       96   1 H                                       1.0776489

 * 8 distinct bonds (by element types)

   Z      Z             #   av. dist./Å        max./Å        min./Å
   1 H    6 C          45     1.0856453     1.1013012     1.0770602
   6 C    6 C          36     1.4117159     1.5360802     1.3752575
   6 C    7 N           2     1.4756738     1.4776093     1.4737383
   6 C    8 O           6     1.3914521     1.4136945     1.3515223
   7 N   15 P           1     1.6530419     1.6530419     1.6530419
   8 O   15 P           2     1.5883911     1.5910235     1.5857587
  15 P   34 Se          1     2.2645162     2.2645162     2.2645162
  16 S   34 Se          1     2.1463882     2.1463882     2.1463882


optimized geometry written to: xtbopt.xyz


           -------------------------------------------------
          | TOTAL ENERGY             -142.970566073858 Eh   |
          | GRADIENT NORM               0.000035500518 Eh/α |
          | HOMO-LUMO GAP               2.253159546056 eV   |
           -------------------------------------------------

------------------------------------------------------------------------
 * finished run on 2024/12/16 at 20:26:13.871     
------------------------------------------------------------------------
 total:
 * wall-time:     0 d,  0 h,  3 min, 46.475 sec
 *  cpu-time:     0 d,  0 h, 29 min, 44.809 sec
 * ratio c/w:     7.881 speedup
 SCF:
 * wall-time:     0 d,  0 h,  0 min,  2.622 sec
 *  cpu-time:     0 d,  0 h,  0 min, 20.800 sec
 * ratio c/w:     7.933 speedup
 ANC optimizer:
 * wall-time:     0 d,  0 h,  3 min, 43.691 sec
 *  cpu-time:     0 d,  0 h, 29 min, 22.762 sec
 * ratio c/w:     7.880 speedup

