96
 energy: -142.970566073858 gnorm: 0.000035500518 xtb: 6.7.1 (edcfbbe)
C           -6.17134123982967        3.37170699960657        1.41546451065395
O           -5.69698565862996        3.28530597976590        0.09110465251985
C           -5.09190054654397        2.14777500661230       -0.31694850111274
C           -4.83797673837796        1.04078955362811        0.48877124040054
C           -4.18799742974209       -0.06300978152133       -0.03515560394786
C           -3.78258257517359       -0.09761679441954       -1.36476162088137
C           -3.10903078687572       -1.27882868636656       -1.92338389163675
C           -3.50822953281474       -1.81604518684788       -3.14447723790670
C           -2.85838791869118       -2.90601229877092       -3.69885082538478
C           -1.81806828023372       -3.49371692505904       -3.00851479258491
C           -1.41835137232167       -3.00249622126238       -1.76308786263894
C           -2.04806514346154       -1.89124140498485       -1.24634157525060
O           -1.55786300414348       -1.30270032585596       -0.06182956111520
P           -0.37717161626382       -0.25517755767390       -0.21445327544175
Se          -0.54390911580258        1.14064535985531       -1.98981514312793
S           -1.49030195246169        2.99261109981409       -1.45920693363444
C           -0.14855592999062        4.07878606661503       -0.93788253904255
C           -0.48552786921526        5.08753308054721       -0.04727136569172
C            0.48827082337749        5.97640664583075        0.37416563751251
C            1.78839278989335        5.85592091668923       -0.08851450073771
C            2.11264966871209        4.85273693092167       -0.98712130047469
C            1.14386596990315        3.96334653968875       -1.41969891862565
N           -0.01371353924772        0.17257144151022        1.34037020977522
C           -0.09308569673991       -0.90992170539766        2.34298556104763
C           -1.35573485736005       -0.88275344716271        3.19361322485720
C            1.16406127649450       -0.97542586066280        3.20798939011065
C           -0.17534427090656        1.60909259349161        1.62705260750444
C            0.68161109615681        2.10255818445179        2.78358102994325
C           -1.63382562446932        2.02053745593981        1.80298385725816
O            0.80614565404496       -1.00167907387301       -0.97198292521800
C            1.43828328013161       -2.10913628285199       -0.36167792556865
C            2.69211263195709       -1.95389610426082        0.24435298477239
C            3.53834227339291       -0.76331841711051        0.04291188141869
C            4.88216486538246       -0.95039984039302       -0.27604788037154
C            5.73044479272313        0.11730171391053       -0.49839203993546
C            5.25380463709519        1.42226535703254       -0.39702682635232
O            5.98589294447030        2.54282852273707       -0.59134573661360
C            7.35545883578012        2.41598597289538       -0.90603662279818
C            3.90993134041674        1.61879784178603       -0.07140451978724
C            3.07244871700119        0.54633947072948        0.13500377748495
C            3.18658174178715       -3.02437989587308        0.99084348239571
C            2.46321895933179       -4.19221941036077        1.16634650295745
C            1.27915891018489       -4.35349852358734        0.47688260906458
C            0.79390143705723       -3.33105691371300       -0.34262595009316
C           -0.33543103916772       -3.86955141237814       -1.18322165733947
C            0.25228315675850       -4.50383690809326       -2.47294097664281
C           -0.94253474147886       -4.63456469676692       -3.42441580006455
C           -0.89654967539694       -4.97256342979795       -0.25548773324782
C            0.34068735717541       -5.52267720101143        0.46988202412301
C           -4.06077771607481        1.00743427159030       -2.17313256123267
C           -4.69635137648745        2.11306693792057       -1.65839452438835
H           -6.63714609838509        4.35188858122459        1.49673524152603
H           -5.35377803657952        3.29829657827600        2.13992633024825
H           -6.91737322429094        2.59980308743209        1.62558312856879
H           -5.14876084110678        1.02277742959150        1.52137690948620
H           -4.02179596031708       -0.92486094503462        0.59494182086156
H           -4.33598278568598       -1.35878895101141       -3.66327507881885
H           -3.15956785561544       -3.28682545418792       -4.66220212928267
H           -1.50466252447167        5.18032549580773        0.29441170446290
H            0.22767773218046        6.76403162521459        1.06392865921347
H            2.54660397312314        6.54765269751605        0.24328476431843
H            3.12019890212964        4.76453772334317       -1.36381917715109
H            1.39806446017960        3.18690746802584       -2.12958554958990
H           -0.11200692691292       -1.82814832205767        1.74385057590455
H           -2.23989434040883       -0.80033484436097        2.56712133114033
H           -1.41733258715574       -1.81058271554203        3.75702669422367
H           -1.33721117062474       -0.06114179007121        3.90356642802899
H            2.05337106203510       -0.80152095103574        2.60945756483055
H            1.13508168752067       -0.25628027171347        4.01906395995783
H            1.23641056347927       -1.97023940823565        3.64034313334693
H            0.20406940303860        2.10427386648914        0.71947073677411
H            1.71126897002566        1.77571808267197        2.67560702863649
H            0.66614221010852        3.18999874818394        2.77786593881927
H            0.29274140206091        1.76558184404316        3.73905841465610
H           -2.25155332708101        1.57437933755862        1.02256284530583
H           -1.71244533170450        3.10191241469972        1.72798136463261
H           -2.02088326995572        1.71716763567495        2.77005279461901
H            5.26877029710169       -1.95342980562286       -0.37680859077673
H            6.75961347105692       -0.07888662572659       -0.75242152164663
H            7.50128110800857        1.88446673364489       -1.85095153814034
H            7.72931680785291        3.43338409609950       -1.00406619551002
H            7.90312368756119        1.90487071117100       -0.10906702276796
H            3.54366892291286        2.62937542711090        0.01877795658907
H            2.04563246246660        0.73927061106565        0.39669923921136
H            4.14116125105459       -2.91100598869891        1.48049789011714
H            2.83642401778233       -4.97345951948410        1.80989310862377
H            0.98919257509048       -3.82024051736300       -2.89944106625318
H            0.74309068649056       -5.45298919524413       -2.27464752147988
H           -1.46358461122332       -5.58404859021846       -3.28191121024310
H           -0.65174086342438       -4.57036818216658       -4.47212270862591
H           -1.43647668649265       -5.73621093469914       -0.80975023539748
H           -1.58339375443787       -4.52186846390386        0.46405941240916
H            0.11314974440493       -5.86634432582285        1.47896962946338
H            0.78007418097503       -6.36368981336963       -0.07021163107974
H           -3.75920944826566        0.99768797362263       -3.21045368234252
H           -4.90544784497474        2.97233780962932       -2.27423480191443
