85
 energy: -113.304826878162 gnorm: 0.109960138262 xtb: 6.7.1 (edcfbbe)
C           -4.63699900000000       -2.78384100000000       -0.43889400000000
C           -3.61977400000000       -2.75152500000000        0.70340500000000
C           -4.19133200000000       -2.09046600000000        1.96006100000000
N           -2.31425700000000       -2.20427200000000        0.29907700000000
C           -1.22862700000000       -3.21614600000000        0.30894600000000
C           -0.97367700000000       -3.79429300000000        1.71047900000000
C           -1.42602500000000       -4.36236900000000       -0.69529500000000
P           -1.98553100000000       -0.63213000000000       -0.11011800000000
S           -3.68796800000000        0.60761900000000       -0.29917700000000
S           -2.94616200000000        2.41715900000000       -0.91848100000000
C           -2.50522700000000        3.23079400000000        0.60069600000000
C           -3.47887800000000        3.59141100000000        1.54015400000000
C           -3.11176300000000        4.23146500000000        2.72823500000000
C           -1.77046800000000        4.52509100000000        2.97594400000000
C           -0.79837500000000        4.17923500000000        2.03874300000000
C           -1.16548900000000        3.54013300000000        0.85269200000000
N           -0.89875500000000       -0.04242900000000        0.99149200000000
C           -1.48468700000000        0.27012600000000        2.29156000000000
C            0.46929800000000       -0.44645300000000        1.03191400000000
C            1.01896300000000       -1.02321900000000        2.19713100000000
C            2.31833900000000       -1.51726900000000        2.24079100000000
C            3.10866400000000       -1.50596200000000        1.09833200000000
C            2.61177800000000       -0.89400900000000       -0.07274900000000
C            1.31545800000000       -0.26639600000000       -0.09404800000000
C            0.92296200000000        0.60441800000000       -1.15378700000000
C           -0.25831900000000        0.37276700000000       -1.90917100000000
C           -0.51124300000000        1.17674300000000       -3.04615200000000
C            0.32045200000000        2.22854800000000       -3.41857700000000
C            1.41853800000000        2.53619800000000       -2.63520100000000
C            1.71601500000000        1.74722600000000       -1.50331900000000
C            2.91158000000000        2.21236600000000       -0.68453400000000
C            2.91022000000000        3.73166500000000       -0.48187000000000
C            2.59382200000000        4.54546500000000       -1.74046100000000
C            2.31883800000000        3.69444000000000       -2.97679000000000
N           -1.14728300000000       -0.68127800000000       -1.53799900000000
C           -1.93076200000000       -1.22813500000000       -2.64554100000000
C            3.39755400000000       -1.07576200000000       -1.36694400000000
C            4.89141500000000       -1.30388000000000       -1.15437400000000
C            5.10635900000000       -2.43927400000000       -0.16830300000000
C            4.49987900000000       -2.08570600000000        1.18508000000000
H           -4.98032900000000       -1.79449000000000       -0.74019600000000
H           -5.52469700000000       -3.35174800000000       -0.13021500000000
H           -4.22831000000000       -3.28728400000000       -1.32146700000000
H           -3.50886000000000       -3.80494700000000        0.98870900000000
H           -5.12146700000000       -2.58831500000000        2.25798200000000
H           -4.42360000000000       -1.03394300000000        1.82599600000000
H           -3.49701700000000       -2.18108300000000        2.80214700000000
H           -0.29835200000000       -2.73266100000000        0.00006900000000
H            0.00538500000000       -4.28624400000000        1.73994800000000
H           -0.97562800000000       -3.01473000000000        2.47818700000000
H           -1.72042500000000       -4.54255400000000        1.99356600000000
H           -0.56341200000000       -5.03982000000000       -0.66646100000000
H           -1.49992800000000       -3.99115400000000       -1.72116100000000
H           -2.31572900000000       -4.96284900000000       -0.48451900000000
H           -4.52852900000000        3.36744400000000        1.35790700000000
H           -3.87205300000000        4.50214700000000        3.45645800000000
H           -1.48166100000000        5.02160200000000        3.89983300000000
H            0.24810600000000        4.40040900000000        2.23070400000000
H           -0.39824400000000        3.26422800000000        0.13555600000000
H           -0.83060100000000        0.93064000000000        2.87508800000000
H           -2.43731400000000        0.79486300000000        2.19620400000000
H           -1.68719100000000       -0.63466500000000        2.87008900000000
H            0.43065000000000       -1.13582800000000        3.10168700000000
H            2.68777300000000       -1.95264100000000        3.16585200000000
H           -1.39642600000000        1.02531900000000       -3.65556700000000
H            0.07513900000000        2.82387900000000       -4.29311900000000
H            2.93088200000000        1.75858800000000        0.31133400000000
H            3.83064100000000        1.91078100000000       -1.20239000000000
H            2.16888500000000        3.98381600000000        0.28921800000000
H            3.87935400000000        4.04284000000000       -0.07368100000000
H            1.71070500000000        5.16619800000000       -1.53196600000000
H            3.41388800000000        5.24356200000000       -1.95041500000000
H            1.87085900000000        4.32524600000000       -3.75242000000000
H            3.25743200000000        3.30289200000000       -3.38685600000000
H           -2.43870100000000       -2.14921300000000       -2.35994100000000
H           -2.71516000000000       -0.53984800000000       -2.97883800000000
H           -1.28714400000000       -1.48326200000000       -3.49645800000000
H            2.97258500000000       -1.94974600000000       -1.87644200000000
H            3.28508100000000       -0.23972700000000       -2.05509100000000
H            5.36576400000000       -1.54704700000000       -2.11299200000000
H            5.36380200000000       -0.38717900000000       -0.77812200000000
H            4.64665400000000       -3.35658200000000       -0.55523000000000
H            6.17609600000000       -2.64135400000000       -0.05089700000000
H            5.13900300000000       -1.34529600000000        1.68445000000000
H            4.49356100000000       -2.98830000000000        1.81051700000000
85
 energy: -113.321669408788 gnorm: 0.044788490672 xtb: 6.7.1 (edcfbbe)
C           -4.64438620656778       -2.77332196492260       -0.44383117071002
C           -3.63352101793960       -2.75836955574631        0.70033479161702
C           -4.19147836655534       -2.08118510813783        1.95199708372615
N           -2.31861493299129       -2.23261559089782        0.29859031531013
C           -1.21706512225186       -3.21950172524134        0.30652017611458
C           -0.97817452331697       -3.79037932479035        1.70825619779051
C           -1.43076615567100       -4.35696583056805       -0.69652431664075
P           -1.93863863465440       -0.66620562218311       -0.10915592867231
S           -3.67332477241053        0.57772985036117       -0.22341372621926
S           -2.91656703428338        2.37552892381154       -0.89113546587948
C           -2.49592045572150        3.22355438929000        0.62010335682051
C           -3.47323942087501        3.58535699258328        1.54201638152461
C           -3.10748070428844        4.22539582563271        2.71709856223888
C           -1.77330460021036        4.51804113107085        2.96468525722161
C           -0.80376483068916        4.17398836652919        2.03374715854501
C           -1.16150846106984        3.52688061120612        0.86070596805000
N           -0.87317829772691       -0.02660346812169        0.99889642699382
C           -1.48163602839688        0.27873650023694        2.29186881080633
C            0.49227454971577       -0.44495019602201        1.03722883478259
C            1.01267511104037       -1.03421955136409        2.18889400956281
C            2.30903538255018       -1.51030522229454        2.22551608996762
C            3.10134684529306       -1.50143156222661        1.08519957521258
C            2.60840250818210       -0.89605000127820       -0.07590803869149
C            1.33193787342331       -0.26780202377413       -0.08038208577041
C            0.92843770237639        0.61432894749613       -1.17156853795625
C           -0.24718216847536        0.38692476244567       -1.91555882025636
C           -0.52306818137201        1.18343097649625       -3.02856275290884
C            0.31132061509871        2.22261825643316       -3.39653113289609
C            1.41531031463627        2.53054096480749       -2.62057118690132
C            1.71395499781724        1.74719236666810       -1.50135598858037
C            2.90310473205775        2.20436020006691       -0.68921597404135
C            2.90114556543616        3.72542396423530       -0.47601466151701
C            2.58931145003950        4.54979193677169       -1.73420043784693
C            2.31747393624601        3.68131434890473       -2.96158162966028
N           -1.12117187991034       -0.69006928089559       -1.55555947952840
C           -1.92728821191176       -1.23142365039253       -2.64877486856071
C            3.38816196648514       -1.06007299342119       -1.36430394872966
C            4.88178066897401       -1.29805062914411       -1.15099878933376
C            5.10167001768390       -2.43925332357380       -0.17153982024176
C            4.48941549472385       -2.08322211948566        1.17738624684076
H           -4.96608619923757       -1.77430812091234       -0.73271262696075
H           -5.52560688875396       -3.33541340225381       -0.13255420255741
H           -4.22765045897456       -3.27656055645551       -1.31628518476757
H           -3.47797469591796       -3.80502078726864        0.97860786671345
H           -5.11569452554347       -2.57927936184868        2.24535186458660
H           -4.41520672685411       -1.02680938005828        1.79753352524931
H           -3.49356562544327       -2.17549198054610        2.78457652640713
H           -0.30582421877596       -2.69190715629308        0.00186175779357
H           -0.00275157548522       -4.27418878698979        1.73243791215117
H           -0.97966110361335       -3.00827137749803        2.46481881977443
H           -1.72379267415327       -4.53529054732511        1.98343459664710
H           -0.56868261848411       -5.02260130625545       -0.65477046073031
H           -1.50523099907513       -3.98464038678861       -1.71634099563098
H           -2.31621862487311       -4.95125843286901       -0.47668599841244
H           -4.51568518371520        3.36185288489333        1.35229874406527
H           -3.86569447291793        4.49776825756086        3.43814507730657
H           -1.48884885360171        5.01572579405419        3.88244051373195
H            0.23614467845019        4.40188040788706        2.22272350086237
H           -0.40474538199509        3.25858017035338        0.13504905792207
H           -0.82199696135381        0.93494420649881        2.86245937874344
H           -2.43291001796597        0.80051062885455        2.16311449771414
H           -1.68244717601472       -0.62255984888211        2.87795463866261
H            0.42321643326613       -1.12929004418541        3.08858730383597
H            2.68377068313381       -1.93676821705595        3.14658039781360
H           -1.39853793433274        1.01236191691968       -3.63754558811638
H            0.07861485024488        2.80514631015534       -4.27743315055215
H            2.92285156819698        1.72404515772019        0.29187037210040
H            3.82090390805324        1.91935561034432       -1.21327405970659
H            2.16313784151632        3.96587434073550        0.29531472560518
H            3.87417153369346        4.01943031207016       -0.07335892300321
H            1.70583814349312        5.16747947730081       -1.54547750635400
H            3.41041557436034        5.23642839540456       -1.95547833762879
H            1.86895497913841        4.29853992347527       -3.74442450912442
H            3.25901510095212        3.29014462414069       -3.36105901867367
H           -2.42254674036676       -2.15008829563808       -2.33193074093787
H           -2.70937799251113       -0.54155822317194       -2.98197181932568
H           -1.27756701314755       -1.46873673492160       -3.49259820119602
H            2.96761706147107       -1.93945705074626       -1.86788242224204
H            3.24984474045178       -0.21841357212399       -2.04168154812878
H            5.35193435616157       -1.53578582184161       -2.10914626326124
H            5.35340397970422       -0.38843220840676       -0.76878727278858
H            4.63838557305533       -3.35055090274777       -0.55955617627062
H            6.16874231350854       -2.64032609134333       -0.04919149099721
H            5.12595879450553       -1.34404376034085        1.67725350923250
H            4.47590282526064       -2.97215763416630        1.81537942886505
85
 energy: -113.326962081489 gnorm: 0.013841167238 xtb: 6.7.1 (edcfbbe)
C           -4.64996119080998       -2.75925814244439       -0.45017110772047
C           -3.64514730689824       -2.76172921886445        0.69583412296952
C           -4.19368846123274       -2.07353493583449        1.94186572055917
N           -2.32440469308551       -2.24832366677342        0.29851685751886
C           -1.21060142027516       -3.21770963920261        0.30503737996633
C           -0.97041591695155       -3.78648797729598        1.70326309022478
C           -1.41853101474609       -4.35251526444267       -0.69629740344378
P           -1.90085642563416       -0.68982501652788       -0.10027850532142
S           -3.63552274382849        0.53963229828425       -0.18267202773348
S           -2.88995734714325        2.32634273934278       -0.87056382806982
C           -2.48181746391464        3.19892625025690        0.63634931130744
C           -3.46683757919346        3.56485664671597        1.54095381077014
C           -3.10414679529697        4.21627790174561        2.70554496656473
C           -1.77361726446565        4.51215179816734        2.95407190419799
C           -0.80186840566607        4.16909585756485        2.02868359072437
C           -1.15086237838945        3.50908654765421        0.86438053350616
N           -0.85314172944311        0.00239072757935        1.00505320760950
C           -1.47288493718954        0.30132887447760        2.29437433963505
C            0.50749522781808       -0.44066622891094        1.04316242847247
C            1.00953350420130       -1.03659738711867        2.19001214602136
C            2.30312274553790       -1.50843885867874        2.21722024064870
C            3.09280407216059       -1.49903374535314        1.07571613301350
C            2.60077942712765       -0.89729948412856       -0.08042003169538
C            1.33772534920022       -0.27229823532699       -0.06991332514590
C            0.92435983138133        0.62320523949174       -1.17648093504098
C           -0.24170491105150        0.39519567424400       -1.91463670650488
C           -0.53327237823918        1.18280336824710       -3.01804389638897
C            0.30082373607422        2.21913467047491       -3.37999398504084
C            1.40903116184100        2.52465836288961       -2.60859439103308
C            1.70857387986824        1.74510862312037       -1.49437641172298
C            2.89855011042982        2.19243823474421       -0.69420065839893
C            2.88956014622706        3.71357641993323       -0.46267683755368
C            2.58037809621953        4.54052186789216       -1.72271701886199
C            2.31594446578107        3.66490609281098       -2.95032474444013
N           -1.10391873722996       -0.69833553611674       -1.56148448814443
C           -1.92138681836579       -1.23996812823897       -2.64698391169245
C            3.37539886543327       -1.04663062907991       -1.36484892878916
C            4.86962089211926       -1.28239381908954       -1.15214635872287
C            5.08506143443152       -2.43320505998992       -0.18017576776631
C            4.47774977642693       -2.07989188496353        1.17099588546811
H           -4.94601090209737       -1.74916195339290       -0.72365639382159
H           -5.53597156231888       -3.30678223662928       -0.14188212261719
H           -4.23378152892378       -3.25990039253804       -1.32039322692690
H           -3.46419936323450       -3.80452276672360        0.96675206877706
H           -5.11770511610615       -2.56367199176380        2.23555464411436
H           -4.40724266470928       -1.02247944570908        1.76273056375375
H           -3.49161643441943       -2.16289544506524        2.76725588730863
H           -0.31603538848140       -2.65562379608807        0.00338493963188
H            0.00172051795246       -4.26927770973534        1.72999967723232
H           -0.97684084326257       -2.99942683866660        2.45023916049808
H           -1.72033812962801       -4.52536236102022        1.97107979729448
H           -0.56138796823902       -5.01797136380915       -0.65054856164397
H           -1.49898836679038       -3.97872882113004       -1.71183603850342
H           -2.30619738105991       -4.93465236714904       -0.46688068503587
H           -4.50379120550861        3.34046193078290        1.34093755204678
H           -3.86338301131842        4.49527012974052        3.41894798500161
H           -1.49487824450222        5.01510655657189        3.86677092611971
H            0.23323768688071        4.40757929102657        2.21679903357622
H           -0.40233706875999        3.23693907939203        0.13538065335743
H           -0.80937320135491        0.95483810548703        2.85639184047571
H           -2.41921733440640        0.82085963718584        2.13796289336373
H           -1.67953894981577       -0.59617259147961        2.88426730258075
H            0.41346597370837       -1.12892791862687        3.08139092555881
H            2.68658863493634       -1.93266962214101        3.13235574244762
H           -1.41240278634022        1.00746696516865       -3.61394116613908
H            0.07332530373237        2.80168552832497       -4.25885966765534
H            2.92672375462404        1.69040759611393        0.27456392430141
H            3.81394667187669        1.92798667737720       -1.23134585844188
H            2.15075352340191        3.94342087565544        0.30673838239418
H            3.86436183009105        3.99741999234035       -0.06379806138143
H            1.69835545588310        5.15808267921654       -1.54550406178962
H            3.40481382674307        5.21755715308121       -1.94694887929200
H            1.87524910145578        4.27118717583698       -3.74398522312889
H            3.26286552214530        3.26736557788266       -3.32815486534054
H           -2.40627683218025       -2.15343200176769       -2.30458018881483
H           -2.70371455495499       -0.55110874445054       -2.97820963121684
H           -1.27037247793246       -1.46929143300846       -3.48846290786174
H            2.95963943967417       -1.92693959183703       -1.87073786620947
H            3.21795079182276       -0.19871997607833       -2.02977203361635
H            5.33703420339309       -1.51214017471714       -2.11113335443921
H            5.33895804131635       -0.37937979127693       -0.75754639315718
H            4.61961227628939       -3.33986782990440       -0.57178249635716
H            6.15032376856897       -2.63384990824955       -0.05761818435780
H            5.11238712692257       -1.33815185456824        1.66768763220680
H            4.45832106169794       -2.96002236091441        1.81735593576048
85
 energy: -113.328677966053 gnorm: 0.011623532254 xtb: 6.7.1 (edcfbbe)
C           -4.64913731579871       -2.74138235425946       -0.45713334171539
C           -3.64602587934521       -2.76280120251926        0.69012801893994
C           -4.19375382700998       -2.06635385452901        1.93055330006503
N           -2.32309711899290       -2.25107413710870        0.29678980731160
C           -1.20128944351060       -3.21146414478009        0.30375145710436
C           -0.96016354620924       -3.77868044465960        1.70152660309210
C           -1.40312799156338       -4.34706536638077       -0.69681973160955
P           -1.88778580897481       -0.69645900488145       -0.09029265420178
S           -3.63240496053490        0.50967176519275       -0.16126744457320
S           -2.86046304309330        2.27813950659770       -0.86439468668119
C           -2.46335304307859        3.16669577716156        0.63997214517055
C           -3.45689531603841        3.53724824711961        1.53283032862705
C           -3.10120416547989        4.20412302583006        2.69204187876317
C           -1.77268880236852        4.50896088191522        2.94218832114331
C           -0.79434583540258        4.16218438316107        2.02461579739189
C           -1.13444998497394        3.48521419238392        0.86645309209506
N           -0.84766643370043        0.02596558031734        1.00787365347292
C           -1.46530448723937        0.33105832831900        2.29614651327261
C            0.50802542822190       -0.43730236098564        1.04985236231471
C            1.00545584523424       -1.03898870639885        2.19651959554710
C            2.29844299203901       -1.51399500411429        2.21680776586899
C            3.08464823592240       -1.50178160693583        1.07287704116545
C            2.59147539899940       -0.90058340462647       -0.08319669737820
C            1.33235106335738       -0.27619458116664       -0.06425040900889
C            0.91621572466037        0.62408129449192       -1.17214002863463
C           -0.24584444044620        0.39505014082087       -1.90880505561773
C           -0.54701739819120        1.18538705489797       -3.00854126536910
C            0.28779663235488        2.22269507319722       -3.36835781797195
C            1.40142975274533        2.52070976548783       -2.60169935326964
C            1.70393985729866        1.74004298421976       -1.48863554575727
C            2.89849900146617        2.17976799019068       -0.69597759730368
C            2.87907653504050        3.69894411727867       -0.44973771574764
C            2.57303513833142        4.52896023164126       -1.70924017242212
C            2.31735800883887        3.65197435591127       -2.93949156683367
N           -1.10049799107332       -0.70430375725452       -1.55599999166849
C           -1.91711956254495       -1.25264439955880       -2.63864877683013
C            3.36194357569590       -1.03605789689987       -1.36926469875970
C            4.85597111979386       -1.26604275799915       -1.15487337782862
C            5.07123609652339       -2.42578902943036       -0.19174585158538
C            4.46983020607476       -2.07805967083999        1.16330610698129
H           -4.92566658148892       -1.72333469088075       -0.72208460190315
H           -5.54655986249897       -3.27292422030158       -0.15349458570417
H           -4.24131387223395       -3.24248481336263       -1.33050357043105
H           -3.46712479166975       -3.80611427329137        0.95687174263375
H           -5.12086331790883       -2.54774125653679        2.22783591066026
H           -4.40207244165328       -1.01718769277516        1.73647223933773
H           -3.49133232687757       -2.14865409016948        2.75558101385554
H           -0.31405800434681       -2.63663422679296        0.00379611214888
H            0.01080704645054       -4.26312127381369        1.72974255622414
H           -0.96793174209278       -2.98935767069734        2.44623551559191
H           -1.71290968946707       -4.51548355514389        1.96738922364098
H           -0.54760034110213       -5.01360905456533       -0.64759694745057
H           -1.48342392083611       -3.97569693885978       -1.71310766078286
H           -2.29282661388247       -4.92555348492933       -0.46491591257405
H           -4.49066873682681        3.30484678234385        1.32711713667425
H           -3.86456735770965        4.49064490022141        3.39839122270266
H           -1.50088780481402        5.02324807170481        3.85058095183018
H            0.23768376984457        4.41466724379996        2.21307548413752
H           -0.38677481544836        3.20794076799577        0.13941560684115
H           -0.79606004618842        0.98327290967628        2.85260466202534
H           -2.40568830444526        0.85532717333983        2.13245969270797
H           -1.67820208593366       -0.56133032677466        2.89105003500422
H            0.40705686557739       -1.12838186903438        3.08609870079916
H            2.68960059246201       -1.93861822657960        3.12823700171700
H           -1.42979622707593        1.00887346356943       -3.59771335935640
H            0.06161476232264        2.80921029611667       -4.24454416435858
H            2.94141167764703        1.66305045531409        0.26457121142335
H            3.80999272845560        1.93330292709306       -1.24878628424581
H            2.13500333750779        3.91705374370192        0.31750745206980
H            3.85087546128872        3.98271736585289       -0.04585769705354
H            1.68929228654956        5.14480700905247       -1.53707042840364
H            3.39905114533656        5.20455669673580       -1.92951783339398
H            1.89065625175798        4.25550269283449       -3.74183329574113
H            3.26804366815722        3.24561783552500       -3.29848119991389
H           -2.39579904123700       -2.16418395610874       -2.28723304335596
H           -2.70161730874747       -0.56723109658829       -2.97055109092374
H           -1.26539710377562       -1.48158592388150       -3.47965207884219
H            2.95093732783613       -1.91405073315099       -1.88265841037021
H            3.19553154094964       -0.18284376097133       -2.02489139741316
H            5.32597270638626       -1.48446528621415       -2.11468529201987
H            5.31991217971802       -0.36580173463676       -0.74801392681470
H            4.60037202331540       -3.32721148960145       -0.58854887263376
H            6.13609171511575       -2.63005189544511       -0.07409443910448
H            5.10376465036389       -1.33374284285863        1.65698745602038
H            4.45237638419016       -2.95709596171954        1.81009915718506
85
 energy: -113.330000583304 gnorm: 0.010386563404 xtb: 6.7.1 (edcfbbe)
C           -4.64521843324683       -2.72035361665576       -0.46752574550882
C           -3.64477203518300       -2.76363875670800        0.68221289423701
C           -4.19125541084283       -2.06111347719261        1.91925415599169
N           -2.31950286340004       -2.25496832382763        0.29260394109197
C           -1.18919988765971       -3.20664768525362        0.30367599996448
C           -0.94631931650618       -3.76943939658429        1.70223373980371
C           -1.38050586336750       -4.34376184689012       -0.69655482530284
P           -1.88208678181865       -0.70294070440950       -0.07491825728756
S           -3.61324371690503        0.50277423455370       -0.16239623918159
S           -2.83101776231126        2.25979914521336       -0.87713533168932
C           -2.43852455147227        3.13464164408436        0.63631387881764
C           -3.44078741135332        3.50195569054187        1.52002196139911
C           -3.09545778520977        4.18496017848298        2.67409397970176
C           -1.77009474430068        4.50465315219503        2.92521330898752
C           -0.78262524572413        4.15250197792734        2.01856458715715
C           -1.11150624248816        3.45883021222380        0.86610221324995
N           -0.84800824625050        0.04972073734669        1.01188093105892
C           -1.45733403751250        0.37325179290716        2.29907124085960
C            0.50163694845769       -0.43569822147686        1.05872514893379
C            0.99879609792571       -1.04184782138635        2.20482688500106
C            2.29062278212552       -1.52329323396799        2.21623249235698
C            3.07274856858025       -1.50825503278556        1.06929557904470
C            2.57748912794115       -0.90609227000060       -0.08649713501629
C            1.32019352507575       -0.28146138713578       -0.05862249949862
C            0.90357786656576        0.62133772067149       -1.16333985816728
C           -0.25725492486985        0.39306629363410       -1.89804857997696
C           -0.56541871762848        1.18900307009865       -2.99436261596583
C            0.26989525286202        2.22788902671556       -3.35231426131674
C            1.39109037508088        2.51514303111245       -2.59266783512927
C            1.69768145617619        1.73109479917415       -1.48164583433172
C            2.89925986540936        2.16372869377569       -0.69820813011874
C            2.86426554931277        3.67882844209605       -0.43106086861812
C            2.56297040443911        4.51328709787141       -1.68873236177617
C            2.31970320410975        3.63670959661642       -2.92324273012745
N           -1.10381782946674       -0.71014046395068       -1.54309509512568
C           -1.91349619420601       -1.27054379200141       -2.62408490000710
C            3.34382124760757       -1.02527115929241       -1.37557465183457
C            4.83808763257723       -1.24458104982415       -1.16068552491056
C            5.05395944213814       -2.41565249431654       -0.21027855253080