99
 energy: -133.758116643487 gnorm: 5.772703036841 xtb: 6.7.1 (edcfbbe)
C            8.39253700000000       -1.47792000000000       -0.11359000000000
O            7.21307500000000       -2.08081000000000        0.34204800000000
C            6.01614000000000       -1.42368400000000        0.46213400000000
C            4.93373200000000       -2.16821200000000        0.93225800000000
C            3.71706800000000       -1.52883900000000        1.06168800000000
C            2.56745500000000       -2.33501600000000        1.56767700000000
C            1.90323500000000       -2.95117400000000        0.36060100000000
C            3.05749400000000       -3.40812400000000        2.50316100000000
C            3.54681400000000       -0.18163400000000        0.73992400000000
S            2.00873800000000        0.56777800000000        0.93153100000000
Se           0.80889700000000        1.14830100000000        1.07098300000000
P           -1.01274500000000        1.42477200000000        0.01081100000000
N           -0.89981900000000        3.05031900000000       -0.43266400000000
C            0.38599200000000        3.63388400000000       -0.42862900000000
C            0.74898300000000        4.53688900000000        0.69284100000000
C            0.50772300000000        4.47432500000000       -1.71010900000000
C           -2.03093100000000        3.86608600000000       -0.51261100000000
C           -3.34615100000000        3.09048200000000       -0.59651800000000
C           -2.15993200000000        4.95345600000000        0.53517100000000
N           -0.92774000000000        0.30395900000000       -1.31859500000000
C           -0.35792800000000        0.67787400000000       -2.57526400000000
C           -1.36657500000000       -1.07995700000000       -1.29637200000000
C           -0.55114800000000       -1.91366000000000       -2.03397100000000
C           -0.76932300000000       -3.26913500000000       -1.91548500000000
C           -1.75653700000000       -3.81557500000000       -1.09203600000000
C           -1.86203900000000       -5.17758800000000       -0.92698100000000
C           -2.77939800000000       -5.63214600000000       -0.01266800000000
C           -3.59616400000000       -4.84228700000000        0.75116500000000
C           -3.49268500000000       -3.48076300000000        0.58287700000000
C           -2.59454400000000       -2.96274900000000       -0.33466800000000
C           -2.34677300000000       -1.61022700000000       -0.49902500000000
C           -3.46812600000000       -0.84567000000000        0.13925800000000
C           -3.32867900000000        0.16754300000000        1.05367300000000
C           -4.42731000000000        0.60956700000000        1.75869800000000
C           -5.63912100000000        0.00603700000000        1.49871400000000
C           -5.78721000000000       -1.01715000000000        0.55456600000000
C           -7.03261800000000       -1.51596900000000        0.24870800000000
C           -7.11068900000000       -2.43303700000000       -0.76956600000000
C           -6.05147000000000       -2.89039900000000       -1.50877100000000
C           -4.80718100000000       -2.39314200000000       -1.19880600000000
C           -4.66134800000000       -1.47425700000000       -0.17170700000000
N           -2.15938900000000        1.00068500000000        1.23974100000000
C           -2.05754500000000        1.50787400000000        2.58060100000000
C            4.63786500000000        0.54070200000000        0.27422800000000
C            4.41280300000000        1.96868800000000       -0.06076700000000
C            4.19150700000000        2.07226900000000       -1.54943400000000
C            5.60484700000000        2.78645000000000        0.37238000000000
C            5.84932600000000       -0.08093700000000        0.14098100000000
H            8.87215600000000       -0.81805500000000        0.63319600000000
H            8.13139800000000       -0.84600600000000       -0.98747800000000
H            9.08789600000000       -2.25124600000000       -0.50138100000000
H            5.06347500000000       -3.20559500000000        1.17974200000000
H            1.86327000000000       -1.65148100000000        2.09459400000000
H            0.87205300000000       -3.25718200000000        0.61938700000000
H            2.49020600000000       -3.85657600000000        0.09332300000000
H            1.86558300000000       -2.21778400000000       -0.46979900000000
H            3.47994700000000       -4.26198100000000        1.91208100000000
H            2.25223400000000       -3.74080100000000        3.16066500000000
H            3.89601400000000       -3.04028600000000        3.15186700000000
H            1.13780700000000        2.79937900000000       -0.43656200000000
H            0.61033100000000        4.06314500000000        1.70565100000000
H            1.87959300000000        4.64580600000000        0.64337300000000
H            0.38042900000000        5.56061500000000        0.64293600000000
H            0.25479500000000        5.53324000000000       -1.52671900000000
H            1.51374700000000        4.32580800000000       -2.15977200000000
H           -0.21505600000000        4.09789000000000       -2.49161500000000
H           -1.96937400000000        4.42891100000000       -1.49174600000000
H           -3.85159800000000        3.07227000000000        0.38822400000000
H           -3.23609600000000        2.11078100000000       -1.08000300000000
H           -4.07501700000000        3.65001400000000       -1.25505200000000
H           -1.91272800000000        5.96710700000000        0.15571600000000
H           -3.25800200000000        5.04262800000000        0.80568600000000
H           -1.67936200000000        4.68545800000000        1.48542900000000
H           -0.85841400000000        0.15977200000000       -3.44576000000000
H           -0.58111700000000        1.74718600000000       -2.75253000000000
H            0.73887800000000        0.52858300000000       -2.60696600000000
H            0.18635200000000       -1.44863300000000       -2.64750900000000
H           -0.12452900000000       -3.92101800000000       -2.50534800000000
H           -1.24249700000000       -5.86399200000000       -1.49755700000000
H           -2.87016200000000       -6.69884200000000        0.11422900000000
H           -4.29435500000000       -5.27208200000000        1.45990000000000
H           -4.06014600000000       -2.88983700000000        1.28559600000000
H           -4.25948400000000        1.39485800000000        2.47277400000000
H           -6.51825500000000        0.35022900000000        2.06174200000000
H           -7.89355400000000       -1.16871800000000        0.81780100000000
H           -8.08348800000000       -2.83205900000000       -1.00834200000000
H           -6.18611400000000       -3.62345200000000       -2.31826500000000
H           -4.01840900000000       -2.68033900000000       -1.87694800000000
H           -2.48123500000000        2.52571500000000        2.71174700000000
H           -0.98290900000000        1.61316300000000        2.81812600000000
H           -2.43847700000000        0.79373100000000        3.34417500000000
H            3.50366400000000        2.35525100000000        0.47822800000000
H            3.88902100000000        1.08123600000000       -1.98003000000000
H            5.14542300000000        2.35229700000000       -2.05982900000000
H            3.41766100000000        2.83082100000000       -1.75472500000000
H            6.07291800000000        3.31403100000000       -0.48492100000000
H            5.30675700000000        3.55874200000000        1.12924700000000
H            6.34631600000000        2.11996400000000        0.84206400000000
H            6.70934100000000        0.43945500000000       -0.21682400000000
99
 energy: -134.959665722050 gnorm: 0.391984143213 xtb: 6.7.1 (edcfbbe)
C            8.39212659156744       -1.47617995573268       -0.11572549523394
O            7.21198873131235       -2.08205334939497        0.34305437742457
C            6.01841232192007       -1.42446312178155        0.46174573528879
C            4.93470012252638       -2.16711789689195        0.93182199774179
C            3.71856138301285       -1.53145363849904        1.06245598721154
C            2.56732201302244       -2.33421603955313        1.56840410806021
C            1.90183581996205       -2.95218457690031        0.35989151100302
C            3.05932270261932       -3.40951864029557        2.50482803153010
C            3.57419309787192       -0.19703645950364        0.73360267540554
S            2.24305016523573        0.45514655079877        0.90758181917210
Se           0.55418336392532        1.27292089256212        1.11311360893339
P           -1.02091436555714        1.42268812744823        0.00582732106411
N           -0.90240180252376        3.04645864146859       -0.43050466706862
C            0.38732166856253        3.63568113964740       -0.43182073353235
C            0.75378479350844        4.53734056260269        0.69670187236507
C            0.50786826260680        4.47318927136234       -1.71329926196856
C           -2.03472860797377        3.86995282784029       -0.51632003626129
C           -3.34853522278904        3.09160613818868       -0.59744444876520
C           -2.16345062287691        4.95511103495968        0.53735314352115
N           -0.93155695285693        0.30255499795618       -1.31789460622379
C           -0.35882958448285        0.68048668691024       -2.57761827932035
C           -1.36581180803249       -1.07742589623352       -1.29423211007612
C           -0.55138660134972       -1.91632358434595       -2.03372655639101
C           -0.76752351891958       -3.26829514922148       -1.91786579950211
C           -1.75498109818195       -3.81502198882657       -1.09218359630400
C           -1.86286174656899       -5.17991408346662       -0.92646096025029
C           -2.77871243135913       -5.63605375182328       -0.01402303559014
C           -3.59658055473332       -4.84100264457355        0.75147551493008
C           -3.49292445111366       -3.48311738280473        0.58613811221887
C           -2.59047654005932       -2.96400543730224       -0.33466108674495
C           -2.34816454965512       -1.60487201853528       -0.49771904633162
C           -3.46260799794657       -0.84497905451160        0.13841234024016
C           -3.32683972427604        0.16970574486266        1.05148017221018
C           -4.43012899366161        0.60889357977267        1.75886381589512
C           -5.63927753956702        0.00758834524875        1.50129518704058
C           -5.78693325062539       -1.01544346032890        0.55490602691426
C           -7.03430642830927       -1.51718456644331        0.24811753392831
C           -7.11478323931359       -2.43375142341828       -0.76859475799542
C           -6.05023888456248       -2.89082604394739       -1.50949572684475
C           -4.80912021457975       -2.39378318675656       -1.20226653619210
C           -4.66386861094917       -1.47100324435494       -0.17155506754497
N           -2.16043921759263        0.99903324464732        1.23686221321337
C           -2.05492072261476        1.50930247914879        2.58176355069697
C            4.63898873411812        0.54095809166537        0.27410848572473
C            4.41303980080411        1.96995784373050       -0.06031848853156
C            4.19136809126107        2.07185747867738       -1.55226367178276
C            5.60638307810450        2.78904985459585        0.37389317580027
C            5.85059573294527       -0.08176373766773        0.14104444541254
H            8.87182212133416       -0.81916626617486        0.63294275534691
H            8.13213752108138       -0.84609153196334       -0.98736668169111
H            9.08674082915518       -2.25060631185477       -0.49987468708581
H            5.06374828406481       -3.20524783218526        1.17952703107159
H            1.86393177144672       -1.65225170284890        2.09427204260085
H            0.87298106019381       -3.25719167864297        0.61864962783792
H            2.48890181619469       -3.85492373938681        0.09261033432281
H            1.86552050572599       -2.21932524766487       -0.46910818328168
H            3.47854533493571       -4.26086001991562        1.91375084858344
H            2.25265548285518       -3.74130353111595        3.16019477861368
H            3.89419401023316       -3.04069473905922        3.15099598903184
H            1.13690240599337        2.80093224432567       -0.43789771856044
H            0.60959510579482        4.06430422649106        1.70401043269994
H            1.87767093789268        4.64599711219511        0.64329423059008
H            0.37980480336715        5.55943505401612        0.64341073737519
H            0.25588377225732        5.53170000770676       -1.52719638859962
H            1.51251578490550        4.32720303198122       -2.15902011804234
H           -0.21342736476992        4.09854467333124       -2.49026655209456
H           -1.96938365330357        4.42819857977692       -1.49105075725850
H           -3.85067492229559        3.07080519977790        0.38703232907774
H           -3.23594482515700        2.11093600317841       -1.07896321741788
H           -4.07342925265293        3.64913261595352       -1.25387851987448
H           -1.91200166475601        5.96528297583734        0.15685803049304
H           -3.25594002921644        5.04272357109400        0.80512612854554
H           -1.67915125656744        4.68619188309062        1.48431463959729
H           -0.85722377582072        0.16051910511833       -3.44380439569133
H           -0.58036237425959        1.74708625771953       -2.75230049964286
H            0.73784436044815        0.52889175354499       -2.60728050718940
H            0.18728765048621       -1.45033483123492       -2.64789935996969
H           -0.12506020125020       -3.92114578157584       -2.50495156664336
H           -1.24276634150065       -5.86371181879835       -1.49712631883010
H           -2.87005713026236       -6.69976918510335        0.11427677076577
H           -4.29393269087133       -5.27181976882049        1.45966173434245
H           -4.05966577474035       -2.88970109757070        1.28556031617232
H           -4.26133075662890        1.39481413402052        2.47267391232038
H           -6.51755703872242        0.34969130497042        2.06106665605179
H           -7.89335906339141       -1.16922820134160        0.81699314010715
H           -8.08439861529973       -2.83224855697977       -1.00847321016606
H           -6.18595662062891       -3.62229728533117       -2.31718501854092
H           -4.01841939540230       -2.67986796565472       -1.87689555261230
H           -2.48142481933568        2.52446171246237        2.71169737881940
H           -0.98273887670810        1.61322323620047        2.81804397271706
H           -2.43831404045865        0.79482985349193        3.34252451106520
H            3.50525899398100        2.35430719841315        0.47745992427822
H            3.88902177780785        1.08321479022901       -1.97946060387668
H            5.14342191212578        2.35192356321910       -2.05934541078824
H            3.41863637755996        2.83006582500156       -1.75541846052701
H            6.07253067227169        3.31345319468876       -0.48340767445195
H            5.30761481733564        3.55749615693879        1.12787265925555
H            6.34586642081836        2.12159474970784        0.84182051376667
H            6.70974476187924        0.44033387776114       -0.21721981710441
99
 energy: -135.096812958567 gnorm: 0.189996416448 xtb: 6.7.1 (edcfbbe)
C            8.38604927951907       -1.46673119983570       -0.12899466404119
O            7.22191885711968       -2.09725711768921        0.34607142002268
C            6.04426350673959       -1.43319351503311        0.45778363579952
C            4.96554058094560       -2.17981067521731        0.92957547372784
C            3.75433381743267       -1.57517832144817        1.05944109588968
C            2.57604548400505       -2.34153777528178        1.57162873933915
C            1.89368542592564       -2.95689510940691        0.36093075499659
C            3.06284481030343       -3.41778653435301        2.51741529558074
C            3.65332585683863       -0.25651662222766        0.68407128149260
S            2.22174270083562        0.47781604890645        1.01297747772540
Se           0.53933953521905        1.31273117621374        1.31001747595974
P           -1.13394459985570        1.42411871532452       -0.05747664568517
N           -0.93912794655477        3.04934136188004       -0.42920084517782
C            0.38013406169536        3.64499904993611       -0.44880385934668
C            0.77761465917487        4.53515469340777        0.70727534278699
C            0.50993052458392        4.46660165985862       -1.73354940017362
C           -2.06719308503755        3.89894147949668       -0.53823543749629
C           -3.36449001199729        3.09822233792208       -0.60616644692763
C           -2.18752936635468        4.96381895538457        0.54698202729469
N           -0.97297118166261        0.30413128781208       -1.33763647352622
C           -0.36926790540103        0.70248649556711       -2.58646027964744
C           -1.35472535513238       -1.07206327121915       -1.27922504402029
C           -0.54747419279333       -1.92792038367485       -2.02974575302283
C           -0.76008152199720       -3.27198889413536       -1.93169600458438
C           -1.73595888213101       -3.81975023774661       -1.08698833574831
C           -1.86566978175610       -5.19568058324317       -0.92567595703426
C           -2.78084143562988       -5.66364564273936       -0.02174986965063
C           -3.59202455719735       -4.84765643452243        0.75113168598791
C           -3.47219187783175       -3.49395286345032        0.60792596063702
C           -2.55515524339358       -2.96468291623458       -0.31609532111878
C           -2.34320194473306       -1.58282558423696       -0.48611905174118
C           -3.44693797641323       -0.82987812203107        0.12823488105624
C           -3.33666652944258        0.18784700513355        1.03500491501975
C           -4.44878274486160        0.60852150303106        1.75944722638529
C           -5.64871840182349        0.00990349726392        1.51675950165367
C           -5.79668956041222       -0.99867703418426        0.55101139942116
C           -7.04766680442565       -1.52453232750416        0.24574412123821
C           -7.14107268116117       -2.44495131826787       -0.76385177839784
C           -6.05871226556451       -2.88901814157883       -1.50992786385788
C           -4.82470380336045       -2.37627742073383       -1.22356898833523
C           -4.67538620784905       -1.43804275846106       -0.18700425706111
N           -2.18443553869151        0.99262174569502        1.22106307819265
C           -2.03585343867112        1.51606526566845        2.57318217499432
C            4.68611838837073        0.53588633528340        0.25661172695805
C            4.43124206145411        1.97343993303337       -0.06494537336542
C            4.19053035497864        2.07257473768513       -1.56435654292049
C            5.61671958891256        2.80582156023729        0.38229162117842
C            5.88829376256919       -0.08807120413043        0.13543979796575
H            8.86740836465139       -0.83079184932155        0.63041555140756
H            8.13856440981804       -0.84118133726603       -0.99588861987351
H            9.07695943193871       -2.24569426249496       -0.48331009033454
H            5.08258089008946       -3.21230604332952        1.17779060849690
H            1.87625785212612       -1.65898884482878        2.09036278761712
H            0.87420125853373       -3.26089713526882        0.61070452781644
H            2.47465789146076       -3.84322072411558        0.07807852433456
H            1.86198378863593       -2.23515440705336       -0.46497111547626
H            3.46556889337845       -4.25960777875204        1.93240402395765
H            2.25387618126197       -3.75112575138542        3.15956782032371
H            3.88119165697606       -3.04316875462561        3.15129048218874
H            1.12607245708604        2.81807544446506       -0.46114426525379
H            0.60158597446665        4.07334143299020        1.69574890820925
H            1.87558580716304        4.65018901674289        0.64362058456455
H            0.37433216713983        5.54451706196160        0.65370702250500
H            0.26947066009602        5.51712466329643       -1.53671308564654
H            1.50998743847631        4.34349093681115       -2.15765506619139
H           -0.20232314303425        4.10060023506369       -2.49131180744638
H           -1.97387780370666        4.43454519269810       -1.50075025174804
H           -3.84455472420042        3.05052285297594        0.37802559902351
H           -3.23298025856418        2.11246689744284       -1.06756982052282
H           -4.07166668630541        3.64551991495282       -1.25112531837638
H           -1.90116556001362        5.95312505735464        0.17227894306496
H           -3.25476399541222        5.05090684965729        0.80688365951611
H           -1.67720827223302        4.69320626959912        1.47378154452108
H           -0.84750078314168        0.16823025985909       -3.43188334320844
H           -0.57414997637352        1.76176053324954       -2.75425589857000
H            0.72245318450079        0.53681867258834       -2.60776720698767
H            0.19818943895674       -1.47561665694469       -2.65002841958498
H           -0.12529093208887       -3.92779663305055       -2.50853480187295
H           -1.24346153169734       -5.86836347675148       -1.49503452137717
H           -2.86971060098140       -6.72274598517804        0.11417736222786
H           -4.28997035965533       -5.27107553405142        1.45828999887934
H           -4.05147102000220       -2.89138275085265        1.28854265162900
H           -4.29036360146173        1.39575866984965        2.47239841866597
H           -6.52096835950330        0.34700091454935        2.06303677249260
H           -7.90011302562409       -1.17555108393926        0.80995151470103
H           -8.10656343494331       -2.83888266625845       -1.01040947872347
H           -6.18687888030084       -3.61374492829604       -2.31011835342745
H           -4.02243014061407       -2.67258383998231       -1.87969030311642
H           -2.48475106269110        2.51352204281634        2.71059279038525
H           -0.97369012199539        1.61675994630379        2.82182244127146
H           -2.43376411350638        0.80740491936180        3.32140036100668
H            3.52498580970578        2.33913310154733        0.47012864857512
H            3.88419836136782        1.09824201808142       -1.97904715083531
H            5.12800089287144        2.35028090223616       -2.06407578109261
H            3.42576838928789        2.82552796625161       -1.76848871989582
H            6.07554630975314        3.31619581078123       -0.47006856517898
H            5.31525392507922        3.55637420961221        1.12323387020903
H            6.34948145362222        2.14349257463237        0.84506934141797
H            6.73325708511954        0.44922323986088       -0.22400769269111
99
 energy: -135.156700488285 gnorm: 0.133291725452 xtb: 6.7.1 (edcfbbe)
C            8.38724631069036       -1.45938721215435       -0.14238427764340
O            7.24081151965670       -2.11483113816630        0.34677838167783
C            6.07757930880301       -1.44257382235466        0.44921851223094
C            4.99931283472775       -2.18864192326779        0.91962585286181
C            3.77156561238470       -1.60407428522736        1.04702177520081
C            2.58765527150770       -2.35830398566353        1.57146939840796
C            1.88405545345796       -2.96672121509711        0.36055665911917
C            3.06190621743512       -3.43323273652927        2.53373026899252
C            3.68337801068232       -0.29202443016743        0.63158769946646
S            2.19727578191142        0.45477945314101        1.10028400713283
Se           0.51547061242498        1.32440408830519        1.43073840836591
P           -1.10687967306446        1.41320554057482       -0.01960699005669
N           -0.95577242841111        3.03638276769393       -0.39863124181338
C            0.37877746752696        3.65044639192281       -0.46528052627182
C            0.79917302260472        4.53398387848648        0.71112799001069
C            0.51040878579241        4.45808619149651       -1.75523540297122
C           -2.09579141238082        3.91096189808349       -0.55629287483278
C           -3.38680339787772        3.10541944400934       -0.62062364754444
C           -2.21670424692524        4.96921092028023        0.54952449098556
N           -1.00434769471296        0.32737376161883       -1.31924322997472
C           -0.38975141097579        0.73930174215585       -2.57680091593751
C           -1.33024077705838       -1.05842769911014       -1.24943946959310
C           -0.53692702186717       -1.93595493988690       -2.01610096090933
C           -0.74773233143958       -3.27770657634525       -1.94010667950023
C           -1.70705448395733       -3.82791490369069       -1.06995229883110
C           -1.86579893542421       -5.21518272643955       -0.92245900744841
C           -2.78111528985693       -5.70006588091481       -0.03120193119844
C           -3.57678054743921       -4.85904862600832        0.75067035132399
C           -3.43396256012525       -3.50679305454927        0.63471828071909
C           -2.50531396741778       -2.96456136957364       -0.28700370764095
C           -2.33089331887103       -1.56015598193433       -0.46573944652768
C           -3.43748867142007       -0.80547788186239        0.10860022045002
C           -3.35363820228835        0.22767025339886        1.00141953197274
C           -4.47814190046135        0.61910214758962        1.74686842918283
C           -5.67122580695367        0.01459011498015        1.52589590869755
C           -5.81704849383898       -0.97461519863815        0.53431043175344
C           -7.06918952069259       -1.53193417894301        0.23755533485171
C           -7.17823671481664       -2.45773532606123       -0.76120327179461
C           -6.07617317166427       -2.87811217127027       -1.51195430614929
C           -4.84881294845167       -2.34285005970156       -1.25014214486596
C           -4.69377789038082       -1.39123360969151       -0.21263113170824
N           -2.18485902052142        0.98471741327477        1.20859462109635
C           -2.03446192812597        1.52796941266866        2.56212483448046
C            4.71003299527344        0.53041812818431        0.23533760110683
C            4.45675668479041        1.97575208993275       -0.07398981823685
C            4.19449022677093        2.07711387101977       -1.57883986926250
C            5.63219707108510        2.82636735389342        0.39129167839765
C            5.92601320660125       -0.09661799557142        0.12514832506164
H            8.86150800100478       -0.84163164013044        0.62966712856962
H            8.14857181946812       -0.83826481200922       -1.00734528657776
H            9.07483543253327       -2.24394454137537       -0.46189569637877
H            5.11961534983135       -3.21990720678378        1.17643750872835
H            1.90099353826228       -1.67313600468515        2.08504582808345
H            0.87131373558610       -3.26952528442868        0.60493701129176
H            2.45487226208421       -3.83789218490435        0.04902241909628
H            1.85212933480050       -2.25081469358651       -0.45893293181417
H            3.45086129257368       -4.27294541879252        1.96277488140737
H            2.24799825728089       -3.76912490648273        3.16293146721971
H            3.86135810878977       -3.04837468139594        3.16256831073864
H            1.10723761067307        2.82264538271154       -0.49022416325783
H            0.59311318888169        4.08381355430253        1.68317150623150
H            1.87741850778351        4.65455364390540        0.64257194240305
H            0.36381375942177        5.52860239564524        0.66460677022905
H            0.28564109837420        5.50408377279152       -1.55634865998566
H            1.51258501757857        4.36559294269876       -2.15717673038134
H           -0.18550955914932        4.09862946560689       -2.50684824252867
H           -1.98413942106994        4.43853374903290       -1.50989327772825
H           -3.84062540800202        3.01837890142697        0.36663218153526
H           -3.23333301066825        2.11425489868658       -1.06369254621715
H           -4.08801129170229        3.63923004681854       -1.25406573208014
H           -1.88457504266524        5.94192608989330        0.19234136902764
H           -3.26279313193361        5.07021198718377        0.81256400119716
H           -1.67875450643880        4.69582074848235        1.45484912853162
H           -0.84545954477096        0.19036838566946       -3.40946408678305
H           -0.56690811293358        1.79576115913336       -2.74706709727692
H            0.69448949236665        0.55382687008449       -2.59770788970297
H            0.21742807827523       -1.51076656007190       -2.64963097695454
H           -0.12830426042439       -3.93896109386114       -2.52087664347813
H           -1.24359718724486       -5.87828087687728       -1.49727108256654
H           -2.87379918952313       -6.75942609859256        0.10732105911584
H           -4.28218301538213       -5.27345620510692        1.45351566378219
H           -4.02753971750250       -2.89282148954435        1.29344976120484
H           -4.33973866994476        1.39997203890970        2.47103079264307