      -----------------------------------------------------------      
     |                   =====================                   |     
     |                           x T B                           |     
     |                   =====================                   |     
     |                         S. Grimme                         |     
     |          Mulliken Center for Theoretical Chemistry        |     
     |                    University of Bonn                     |     
      -----------------------------------------------------------      

   * xtb version 6.7.1 (edcfbbe) compiled by 'conda@3ef47c1a292c' on 2024-11-25

   xtb is free software: you can redistribute it and/or modify it under
   the terms of the GNU Lesser General Public License as published by
   the Free Software Foundation, either version 3 of the License, or
   (at your option) any later version.
   
   xtb is distributed in the hope that it will be useful,
   but WITHOUT ANY WARRANTY; without even the implied warranty of
   MERCHANTABILITY or FITNESS FOR A PARTICULAR PURPOSE.  See the
   GNU Lesser General Public License for more details.
   
   Cite this work as:
   * C. Bannwarth, E. Caldeweyher, S. Ehlert, A. Hansen, P. Pracht,
     J. Seibert, S. Spicher, S. Grimme, WIREs Comput. Mol. Sci., 2020, 11,
     e01493. DOI: 10.1002/wcms.1493
   
   for GFN2-xTB:
   * C. Bannwarth, S. Ehlert and S. Grimme., J. Chem. Theory Comput., 2019,
     15, 1652-1671. DOI: 10.1021/acs.jctc.8b01176
   for GFN1-xTB:
   * S. Grimme, C. Bannwarth, P. Shushkov, J. Chem. Theory Comput., 2017,
     13, 1989-2009. DOI: 10.1021/acs.jctc.7b00118
   for GFN0-xTB:
   * P. Pracht, E. Caldeweyher, S. Ehlert, S. Grimme, ChemRxiv, 2019, preprint.
     DOI: 10.26434/chemrxiv.8326202.v1
   for GFN-FF:
   * S. Spicher and S. Grimme, Angew. Chem. Int. Ed., 2020, 59, 15665-15673.
     DOI: 10.1002/anie.202004239
   
   for ALPB and GBSA implicit solvation:
   * S. Ehlert, M. Stahn, S. Spicher, S. Grimme, J. Chem. Theory Comput.,
     2021, 17, 4250-4261. DOI: 10.1021/acs.jctc.1c00471
   
   for ddCOSMO and CPCM-X implicit solvation:
   * M. Stahn, S. Ehlert, S. Grimme, J. Phys. Chem. A,
     2023, XX, XXXX-XXXX. DOI: 10.1021/acs.jpca.3c04382
   
   for DFT-D4:
   * E. Caldeweyher, C. Bannwarth and S. Grimme, J. Chem. Phys., 2017,
     147, 034112. DOI: 10.1063/1.4993215
   * E. Caldeweyher, S. Ehlert, A. Hansen, H. Neugebauer, S. Spicher,
     C. Bannwarth and S. Grimme, J. Chem. Phys., 2019, 150, 154122.
     DOI: 10.1063/1.5090222
   * E. Caldeweyher, J.-M. Mewes, S. Ehlert and S. Grimme, Phys. Chem. Chem. Phys.
     2020, 22, 8499-8512. DOI: 10.1039/D0CP00502A
   
   for sTDA-xTB:
   * S. Grimme and C. Bannwarth, J. Chem. Phys., 2016, 145, 054103.
     DOI: 10.1063/1.4959605
   
   in the mass-spec context:
   * V. Asgeirsson, C. Bauer and S. Grimme, Chem. Sci., 2017, 8, 4879.
     DOI: 10.1039/c7sc00601b
   * J. Koopman and S. Grimme, ACS Omega 2019, 4, 12, 15120-15133.
     DOI: 10.1021/acsomega.9b02011
   
   for metadynamics refer to:
   * S. Grimme, J. Chem. Theory Comput., 2019, 155, 2847-2862
     DOI: 10.1021/acs.jctc.9b00143
   
   for SPH calculations refer to:
   * S. Spicher and S. Grimme, J. Chem. Theory Comput., 2021, 17, 1701-1714
     DOI: 10.1021/acs.jctc.0c01306
   
   for ONIOM refer to:
   * C. Plett, A. Katbashev, S. Ehlert, S. Grimme, M. Bursch,
     Phys. Chem. Chem. Phys., 2023, 25, 17860-17868. DOI: 10.1039/D3CP02178E
   
   for DIPRO refer to:
   * J. Kohn, N. Gildemeister, S. Grimme, D. Fazzi, A. Hansen,
     J. Chem. Phys., 2023, just accepted.
   
   for PTB refer to:
   * S. Grimme, M. Mueller, A. Hansen, J. Chem. Phys., 2023, 158, 124111.
     DOI: 10.1063/5.0137838
   
   with help from (in alphabetical order)
   P. Atkinson, C. Bannwarth, F. Bohle, G. Brandenburg, E. Caldeweyher
   M. Checinski, S. Dohm, S. Ehlert, S. Ehrlich, I. Gerasimov, C. Hölzer
   A. Katbashev, J. Kohn, J. Koopman, C. Lavigne, S. Lehtola, F. März, M. Müller,
   F. Musil, H. Neugebauer, J. Pisarek, C. Plett, P. Pracht, F. Pultar,
   J. Seibert, P. Shushkov, S. Spicher, M. Stahn, M. Steiner, T. Strunk,
   J. Stückrath, T. Rose, and J. Unsleber
   
 * started run on 2024/12/16 at 21:34:31.235     
   ID    Z sym.   atoms
    1    6 C      1, 3-12, 17-21, 23, 25-30, 32-37, 39-52
    2    8 O      2, 13, 31, 38
    3   15 P      14
    4   34 Se     15
    5   16 S      16
    6    9 F      22
    7    7 N      24
    8    1 H      53-96

           -------------------------------------------------
          |                Calculation Setup                |
           -------------------------------------------------

          program call               : xtb --gfn2 --opt extreme -P 8 --charge 1 molecule.xyz
          hostname                   : node20
          coordinate file            : molecule.xyz
          omp threads                :                     8


           -------------------------------------------------
          |                 G F N 2 - x T B                 |
           -------------------------------------------------

        Reference                      10.1021/acs.jctc.8b01176
      * Hamiltonian:
        H0-scaling (s, p, d)           1.850000    2.230000    2.230000
        zeta-weighting                 0.500000
      * Dispersion:
        s8                             2.700000
        a1                             0.520000
        a2                             5.000000
        s9                             5.000000
      * Repulsion:
        kExp                           1.500000    1.000000
        rExp                           1.000000
      * Coulomb:
        alpha                          2.000000
        third order                    shell-resolved
        anisotropic                    true
        a3                             3.000000
        a5                             4.000000
        cn-shift                       1.200000
        cn-exp                         4.000000
        max-rad                        5.000000


          ...................................................
          :                      SETUP                      :
          :.................................................:
          :  # basis functions                 270          :
          :  # atomic orbitals                 267          :
          :  # shells                          151          :
          :  # electrons                       268          :
          :  max. iterations                   250          :
          :  Hamiltonian                  GFN2-xTB          :
          :  restarted?                      false          :
          :  GBSA solvation                  false          :
          :  PC potential                    false          :
          :  electronic temp.          300.0000000     K    :
          :  accuracy                    1.0000000          :
          :  -> integral cutoff          0.2500000E+02      :
          :  -> integral neglect         0.1000000E-07      :
          :  -> SCF convergence          0.1000000E-05 Eh   :
          :  -> wf. convergence          0.1000000E-03 e    :
          :  Broyden damping             0.4000000          :
          :  net charge                          1          :
          :  unpaired electrons                  0          :
          ...................................................

 iter      E             dE          RMSdq      gap      omega  full diag
   1   -148.9295762 -0.148930E+03  0.493E+00    2.75       0.0  T
   2   -149.1089084 -0.179332E+00  0.278E+00    2.75       1.0  T
   3   -149.1114168 -0.250843E-02  0.121E+00    2.45       1.0  T
   4   -149.1361625 -0.247457E-01  0.504E-01    2.28       1.0  T
   5   -149.1404559 -0.429332E-02  0.208E-01    2.30       1.0  T
   6   -149.1416547 -0.119889E-02  0.861E-02    2.30       1.0  T
   7   -149.1417558 -0.101052E-03  0.391E-02    2.31       1.0  T
   8   -149.1417787 -0.229074E-04  0.242E-02    2.30       1.0  T
   9   -149.1417751  0.359036E-05  0.167E-02    2.30       1.0  T
  10   -149.1417854 -0.102920E-04  0.751E-03    2.30       1.4  T
  11   -149.1417856 -0.191980E-06  0.478E-03    2.30       2.1  T
  12   -149.1417862 -0.576373E-06  0.187E-03    2.30       5.5  T
  13   -149.1417862 -0.669096E-07  0.880E-04    2.30      11.6  T
  14   -149.1417863 -0.154275E-07  0.394E-04    2.30      25.9  T

   *** convergence criteria satisfied after 14 iterations ***

         #    Occupation            Energy/Eh            Energy/eV
      -------------------------------------------------------------
         1        2.0000           -0.9055310             -24.6408
       ...           ...                  ...                  ...
       128        2.0000           -0.4931871             -13.4203
       129        2.0000           -0.4905256             -13.3479
       130        2.0000           -0.4896339             -13.3236
       131        2.0000           -0.4805641             -13.0768
       132        2.0000           -0.4713445             -12.8259
       133        2.0000           -0.4598380             -12.5128
       134        2.0000           -0.4583967             -12.4736 (HOMO)
       135                         -0.3738171             -10.1721 (LUMO)
       136                         -0.3576205              -9.7313
       137                         -0.3430159              -9.3339
       138                         -0.3388623              -9.2209
       139                         -0.3361572              -9.1473
       ...                                ...                  ...
       267                          1.5857164              43.1495
      -------------------------------------------------------------
                  HL-Gap            0.0845795 Eh            2.3015 eV
             Fermi-level           -0.4161069 Eh          -11.3228 eV

 SCC (total)                   0 d,  0 h,  0 min,  2.197 sec
 SCC setup                      ...        0 min,  0.000 sec (  0.021%)
 Dispersion                     ...        0 min,  0.002 sec (  0.098%)
 classical contributions        ...        0 min,  0.000 sec (  0.007%)
 integral evaluation            ...        0 min,  0.010 sec (  0.470%)
 iterations                     ...        0 min,  2.056 sec ( 93.544%)
 molecular gradient             ...        0 min,  0.124 sec (  5.625%)
 printout                       ...        0 min,  0.005 sec (  0.234%)

         :::::::::::::::::::::::::::::::::::::::::::::::::::::
         ::                     SUMMARY                     ::
         :::::::::::::::::::::::::::::::::::::::::::::::::::::
         :: total energy            -147.002046778224 Eh    ::
         :: gradient norm              0.322437572356 Eh/a0 ::
         :: HOMO-LUMO gap              2.301526007512 eV    ::
         ::.................................................::
         :: SCC energy              -149.135774235645 Eh    ::
         :: -> isotropic ES            0.142804787839 Eh    ::
         :: -> anisotropic ES          0.002061694907 Eh    ::
         :: -> anisotropic XC          0.062179974948 Eh    ::
         :: -> dispersion             -0.145593737280 Eh    ::
         :: repulsion energy           2.133727457420 Eh    ::
         :: add. restraining           0.000000000000 Eh    ::
         :: total charge               1.000000000000 e     ::
         :::::::::::::::::::::::::::::::::::::::::::::::::::::

      ----------------------------------------------------------- 
     |                   =====================                   |
     |                        A N C O P T                        |
     |                   =====================                   |
     |               Approximate Normal Coordinate               |
     |                Rational Function Optimizer                |
      ----------------------------------------------------------- 
      ----------------------------------------------------------- 
     |                   =====================                   |
     |                        A N C O P T                        |
     |                   =====================                   |
     |               Approximate Normal Coordinate               |
     |                Rational Function Optimizer                |
      ----------------------------------------------------------- 

          ...................................................
          :                      SETUP                      :
          :.................................................:
          :   optimization level           extreme          :
          :   max. optcycles                  1920          :
          :   ANC micro-cycles                  20          :
          :   degrees of freedom               282          :
          :.................................................:
          :   RF solver                   davidson          :
          :   write xtbopt.log                true          :
          :   linear?                        false          :
          :   energy convergence         0.5000000E-07 Eh   :
          :   grad. convergence          0.5000000E-04 Eh/α :
          :   maxmium RF displ.          1.0000000          :
          :   Hlow (freq-cutoff)         0.1000000E-01      :
          :   Hmax (freq-cutoff)         5.0000000          :
          :   S6 in model hess.         20.0000000          :
          ...................................................

generating ANC from exact Hessian ...
Using Lindh-Hessian (1995)
 Shifting diagonal of input Hessian by    1.0424177743546753E-002
 Lowest  eigenvalues of input Hessian
    0.010000    0.000000    0.000000    0.000000    0.000000    0.000000
    0.000000    0.010477    0.010527    0.010588    0.010635    0.010705
    0.010836    0.010858    0.010921    0.010999    0.011308    0.011377
 Highest eigenvalues
    2.082791    2.093713    2.104163    2.106597    2.162386    2.164253


........................................................................
.............................. CYCLE    1 ..............................
........................................................................

 iter      E             dE          RMSdq      gap      omega  full diag
   1   -149.1417863 -0.149142E+03  0.173E-04    2.30       0.0  T
   2   -149.1417863 -0.287400E-09  0.122E-04    2.30      83.4  T
   3   -149.1417863 -0.220155E-09  0.796E-05    2.30     128.2  T
     SCC iter.                  ...        0 min,  0.393 sec
     gradient                   ...        0 min,  0.129 sec
 * total energy  :  -147.0020468 Eh     change       -0.5152856E-08 Eh
   gradient norm :     0.3224369 Eh/α   predicted     0.0000000E+00 (-100.00%)
   displ. norm   :     0.5542725 α      lambda       -0.1482297E+00
   maximum displ.:     0.1818177 α      in ANC's #180, #185, #178, ...

........................................................................
.............................. CYCLE    2 ..............................
........................................................................

 iter      E             dE          RMSdq      gap      omega  full diag
   1   -149.2297271 -0.149230E+03  0.627E-01    1.71       0.0  T
   2   -149.2305908 -0.863677E-03  0.343E-01    1.87       1.0  T
   3   -149.2302892  0.301572E-03  0.131E-01    1.98       1.0  T
   4   -149.2306794 -0.390186E-03  0.708E-02    2.00       1.0  T
   5   -149.2308610 -0.181612E-03  0.366E-02    2.00       1.0  T
   6   -149.2308776 -0.166084E-04  0.231E-02    2.00       1.0  T
   7   -149.2308868 -0.917064E-05  0.113E-02    1.99       1.0  T
   8   -149.2308897 -0.290922E-05  0.588E-03    1.99       1.7  T
   9   -149.2308901 -0.400408E-06  0.320E-03    1.99       3.2  T
  10   -149.2308902 -0.996039E-07  0.152E-03    1.99       6.7  T
  11   -149.2308903 -0.732247E-07  0.701E-04    1.99      14.6  T
  12   -149.2308903 -0.109156E-07  0.337E-04    1.99      30.2  T
     SCC iter.                  ...        0 min,  2.253 sec
     gradient                   ...        0 min,  0.176 sec
 * total energy  :  -147.0995165 Eh     change       -0.9746976E-01 Eh
   gradient norm :     0.1447424 Eh/α   predicted    -0.9690058E-01 (  -0.58%)
   displ. norm   :     0.5134899 α      lambda       -0.5305023E-01
   maximum displ.:     0.1416180 α      in ANC's #1, #29, #176, ...

........................................................................
.............................. CYCLE    3 ..............................
........................................................................

 iter      E             dE          RMSdq      gap      omega  full diag
   1   -149.2831015 -0.149283E+03  0.288E-01    1.80       0.0  T
   2   -149.2835281 -0.426558E-03  0.174E-01    1.86       1.0  T
   3   -149.2833024  0.225705E-03  0.757E-02    1.89       1.0  T
   4   -149.2836388 -0.336391E-03  0.279E-02    1.90       1.0  T
   5   -149.2836705 -0.316782E-04  0.157E-02    1.89       1.0  T
   6   -149.2836751 -0.464105E-05  0.102E-02    1.89       1.0  T
   7   -149.2836766 -0.145694E-05  0.506E-03    1.89       2.0  T
   8   -149.2836771 -0.554800E-06  0.270E-03    1.89       3.8  T
   9   -149.2836772 -0.650274E-07  0.123E-03    1.89       8.3  T
  10   -149.2836772 -0.919687E-08  0.723E-04    1.89      14.1  T
  11   -149.2836772 -0.610794E-08  0.431E-04    1.89      23.7  T
     SCC iter.                  ...        0 min,  1.771 sec
     gradient                   ...        0 min,  0.120 sec
 * total energy  :  -147.1361556 Eh     change       -0.3663908E-01 Eh
   gradient norm :     0.0555543 Eh/α   predicted    -0.3351940E-01 (  -8.51%)
   displ. norm   :     0.5766542 α      lambda       -0.1944460E-01
   maximum displ.:     0.2045639 α      in ANC's #1, #29, #32, ...

........................................................................
.............................. CYCLE    4 ..............................
........................................................................

 iter      E             dE          RMSdq      gap      omega  full diag
   1   -149.2920167 -0.149292E+03  0.258E-01    1.79       0.0  T
   2   -149.2921557 -0.138987E-03  0.132E-01    1.82       1.0  T
   3   -149.2920163  0.139424E-03  0.481E-02    1.84       1.0  T
   4   -149.2921963 -0.180003E-03  0.216E-02    1.84       1.0  T
   5   -149.2922124 -0.160992E-04  0.111E-02    1.84       1.0  T
   6   -149.2922135 -0.113480E-05  0.634E-03    1.84       1.6  T
   7   -149.2922143 -0.768973E-06  0.311E-03    1.84       3.3  T
   8   -149.2922144 -0.163327E-06  0.153E-03    1.84       6.7  T
   9   -149.2922144 -0.194381E-07  0.635E-04    1.84      16.1  T
  10   -149.2922144 -0.220822E-08  0.394E-04    1.84      25.9  T
     SCC iter.                  ...        0 min,  1.439 sec
     gradient                   ...        0 min,  0.123 sec
 * total energy  :  -147.1502287 Eh     change       -0.1407311E-01 Eh
   gradient norm :     0.0287092 Eh/α   predicted    -0.1295526E-01 (  -7.94%)
   displ. norm   :     0.6403914 α      lambda       -0.1018834E-01
   maximum displ.:     0.2687993 α      in ANC's #1, #29, #22, ...

........................................................................
.............................. CYCLE    5 ..............................
........................................................................

 iter      E             dE          RMSdq      gap      omega  full diag
   1   -149.2932681 -0.149293E+03  0.227E-01    1.83       0.0  T
   2   -149.2933119 -0.438128E-04  0.108E-01    1.83       1.0  T
   3   -149.2932754  0.365394E-04  0.283E-02    1.83       1.0  T
   4   -149.2933212 -0.458794E-04  0.141E-02    1.83       1.0  T
   5   -149.2933283 -0.707765E-05  0.420E-03    1.83       2.4  T
   6   -149.2933286 -0.280256E-06  0.234E-03    1.83       4.4  T
   7   -149.2933288 -0.156584E-06  0.125E-03    1.83       8.2  T
   8   -149.2933288 -0.130122E-07  0.494E-04    1.83      20.7  T
   9   -149.2933288 -0.355203E-08  0.262E-04    1.83      39.0  T
     SCC iter.                  ...        0 min,  1.182 sec
     gradient                   ...        0 min,  0.123 sec
 * total energy  :  -147.1584727 Eh     change       -0.8244012E-02 Eh
   gradient norm :     0.0252831 Eh/α   predicted    -0.7183308E-02 ( -12.87%)
   displ. norm   :     0.7129632 α      lambda       -0.8096187E-02
   maximum displ.:     0.2789856 α      in ANC's #1, #22, #29, ...

........................................................................
.............................. CYCLE    6 ..............................
........................................................................

 iter      E             dE          RMSdq      gap      omega  full diag
   1   -149.2966145 -0.149297E+03  0.233E-01    1.86       0.0  T
   2   -149.2966592 -0.446044E-04  0.109E-01    1.85       1.0  T
   3   -149.2966407  0.184664E-04  0.259E-02    1.84       1.0  T
   4   -149.2966654 -0.247582E-04  0.131E-02    1.84       1.0  T
   5   -149.2966712 -0.580253E-05  0.452E-03    1.84       2.3  T
   6   -149.2966721 -0.858412E-06  0.227E-03    1.84       4.5  T
   7   -149.2966722 -0.471901E-07  0.151E-03    1.84       6.8  T
   8   -149.2966722 -0.467389E-08  0.808E-04    1.84      12.6  T
   9   -149.2966722 -0.176336E-07  0.469E-04    1.84      21.8  T
     SCC iter.                  ...        0 min,  1.417 sec
     gradient                   ...        0 min,  0.159 sec
 * total energy  :  -147.1652138 Eh     change       -0.6741011E-02 Eh
   gradient norm :     0.0219024 Eh/α   predicted    -0.6105815E-02 (  -9.42%)
   displ. norm   :     0.7369266 α      lambda       -0.6373493E-02
   maximum displ.:     0.3016972 α      in ANC's #1, #22, #32, ...

........................................................................
.............................. CYCLE    7 ..............................
........................................................................

 iter      E             dE          RMSdq      gap      omega  full diag
   1   -149.3030217 -0.149303E+03  0.231E-01    1.88       0.0  T
   2   -149.3030768 -0.550525E-04  0.108E-01    1.86       1.0  T
   3   -149.3030680  0.878039E-05  0.236E-02    1.85       1.0  T
   4   -149.3030843 -0.163536E-04  0.121E-02    1.85       1.0  T
   5   -149.3030874 -0.307405E-05  0.539E-03    1.85       1.9  T
   6   -149.3030886 -0.120622E-05  0.262E-03    1.85       3.9  T
   7   -149.3030887 -0.569293E-07  0.175E-03    1.85       5.8  T
   8   -149.3030887 -0.136500E-07  0.949E-04    1.85      10.8  T
   9   -149.3030887 -0.230645E-07  0.480E-04    1.85      21.3  T
     SCC iter.                  ...        0 min,  1.559 sec
     gradient                   ...        0 min,  0.128 sec
 * total energy  :  -147.1705533 Eh     change       -0.5339588E-02 Eh
   gradient norm :     0.0164634 Eh/α   predicted    -0.4917347E-02 (  -7.91%)
   displ. norm   :     0.7435782 α      lambda       -0.4900806E-02
   maximum displ.:     0.2942216 α      in ANC's #1, #22, #32, ...

........................................................................
.............................. CYCLE    8 ..............................
........................................................................

 iter      E             dE          RMSdq      gap      omega  full diag
   1   -149.3093880 -0.149309E+03  0.236E-01    1.87       0.0  T
   2   -149.3094482 -0.601788E-04  0.110E-01    1.85       1.0  T
   3   -149.3094395  0.873408E-05  0.230E-02    1.84       1.0  T
   4   -149.3094572 -0.176717E-04  0.117E-02    1.84       1.0  T
   5   -149.3094594 -0.222769E-05  0.517E-03    1.84       2.0  T
   6   -149.3094605 -0.113418E-05  0.231E-03    1.84       4.4  T
   7   -149.3094606 -0.496364E-07  0.156E-03    1.84       6.5  T
   8   -149.3094606 -0.231486E-07  0.908E-04    1.84      11.2  T
   9   -149.3094606 -0.168782E-07  0.450E-04    1.84      22.7  T
     SCC iter.                  ...        0 min,  1.411 sec
     gradient                   ...        0 min,  0.131 sec
 * total energy  :  -147.1746615 Eh     change       -0.4108169E-02 Eh
   gradient norm :     0.0122551 Eh/α   predicted    -0.3805254E-02 (  -7.37%)
   displ. norm   :     0.7421061 α      lambda       -0.3716514E-02
   maximum displ.:     0.3207898 α      in ANC's #1, #22, #32, ...

........................................................................
.............................. CYCLE    9 ..............................
........................................................................

 iter      E             dE          RMSdq      gap      omega  full diag
   1   -149.3132863 -0.149313E+03  0.218E-01    1.87       0.0  T
   2   -149.3133321 -0.457598E-04  0.102E-01    1.86       1.0  T
   3   -149.3133217  0.103523E-04  0.216E-02    1.85       1.0  T
   4   -149.3133384 -0.166759E-04  0.111E-02    1.85       1.0  T
   5   -149.3133411 -0.271257E-05  0.468E-03    1.85       2.2  T
   6   -149.3133423 -0.115133E-05  0.183E-03    1.85       5.6  T
   7   -149.3133423 -0.296320E-07  0.119E-03    1.85       8.6  T
   8   -149.3133423 -0.161282E-07  0.703E-04    1.85      14.5  T
   9   -149.3133423 -0.775188E-08  0.378E-04    1.85      27.0  T
     SCC iter.                  ...        0 min,  1.464 sec
     gradient                   ...        0 min,  0.122 sec
 * total energy  :  -147.1777720 Eh     change       -0.3110445E-02 Eh
   gradient norm :     0.0113922 Eh/α   predicted    -0.2881642E-02 (  -7.36%)
   displ. norm   :     0.7358299 α      lambda       -0.2823167E-02
   maximum displ.:     0.3133046 α      in ANC's #1, #25, #22, ...

........................................................................
.............................. CYCLE   10 ..............................
........................................................................

 iter      E             dE          RMSdq      gap      omega  full diag
   1   -149.3149245 -0.149315E+03  0.215E-01    1.84       0.0  T
   2   -149.3149622 -0.377131E-04  0.101E-01    1.84       1.0  T
   3   -149.3149467  0.154677E-04  0.228E-02    1.83       1.0  T
   4   -149.3149678 -0.211142E-04  0.115E-02    1.84       1.0  T
   5   -149.3149715 -0.368593E-05  0.429E-03    1.84       2.4  T
   6   -149.3149727 -0.117734E-05  0.155E-03    1.84       6.6  T
   7   -149.3149727 -0.222622E-07  0.926E-04    1.84      11.0  T
   8   -149.3149727 -0.868107E-08  0.555E-04    1.84      18.4  T
     SCC iter.                  ...        0 min,  1.256 sec
     gradient                   ...        0 min,  0.123 sec
 * total energy  :  -147.1801298 Eh     change       -0.2357851E-02 Eh
   gradient norm :     0.0116242 Eh/α   predicted    -0.2175885E-02 (  -7.72%)
   displ. norm   :     0.7191063 α      lambda       -0.2210655E-02
   maximum displ.:     0.3366732 α      in ANC's #1, #25, #20, ...

........................................................................
.............................. CYCLE   11 ..............................
........................................................................

 iter      E             dE          RMSdq      gap      omega  full diag
   1   -149.3161666 -0.149316E+03  0.167E-01    1.89       0.0  T
   2   -149.3161869 -0.202764E-04  0.832E-02    1.88       1.0  T
   3   -149.3161739  0.129372E-04  0.200E-02    1.88       1.0  T
   4   -149.3161887 -0.148153E-04  0.104E-02    1.88       1.0  T
   5   -149.3161926 -0.382350E-05  0.338E-03    1.88       3.0  T
   6   -149.3161932 -0.689786E-06  0.152E-03    1.88       6.7  T
   7   -149.3161933 -0.502754E-07  0.900E-04    1.88      11.3  T
   8   -149.3161933 -0.756822E-08  0.517E-04    1.88      19.7  T
     SCC iter.                  ...        0 min,  1.218 sec
     gradient                   ...        0 min,  0.134 sec
 * total energy  :  -147.1819476 Eh     change       -0.1817813E-02 Eh
   gradient norm :     0.0101541 Eh/α   predicted    -0.1676915E-02 (  -7.75%)
   displ. norm   :     0.7144284 α      lambda       -0.1803205E-02
   maximum displ.:     0.2954284 α      in ANC's #1, #13, #14, ...

........................................................................
.............................. CYCLE   12 ..............................
........................................................................

 iter      E             dE          RMSdq      gap      omega  full diag
   1   -149.3165292 -0.149317E+03  0.221E-01    1.79       0.0  T
   2   -149.3165696 -0.403537E-04  0.104E-01    1.79       1.0  T
   3   -149.3165543  0.153113E-04  0.254E-02    1.80       1.0  T
   4   -149.3165755 -0.212146E-04  0.132E-02    1.80       1.0  T
   5   -149.3165802 -0.469922E-05  0.438E-03    1.80       2.3  T
   6   -149.3165816 -0.139134E-05  0.176E-03    1.80       5.8  T
   7   -149.3165816 -0.457877E-07  0.103E-03    1.80       9.9  T
   8   -149.3165816 -0.120762E-07  0.571E-04    1.80      17.9  T
   9   -149.3165816 -0.306770E-08  0.360E-04    1.80      28.4  T
     SCC iter.                  ...        0 min,  1.541 sec
     gradient                   ...        0 min,  0.123 sec
 * total energy  :  -147.1833275 Eh     change       -0.1379921E-02 Eh
   gradient norm :     0.0103589 Eh/α   predicted    -0.1361792E-02 (  -1.31%)
   displ. norm   :     0.6769354 α      lambda       -0.1656205E-02
   maximum displ.:     0.2983963 α      in ANC's #1, #14, #13, ...

........................................................................
.............................. CYCLE   13 ..............................
........................................................................

 iter      E             dE          RMSdq      gap      omega  full diag
   1   -149.3193894 -0.149319E+03  0.125E-01    1.94       0.0  T
   2   -149.3194047 -0.153657E-04  0.716E-02    1.93       1.0  T
   3   -149.3193929  0.118586E-04  0.201E-02    1.93       1.0  T
   4   -149.3194079 -0.149756E-04  0.823E-03    1.93       1.2  T
   5   -149.3194080 -0.124731E-06  0.457E-03    1.93       2.2  T
   6   -149.3194090 -0.981003E-06  0.192E-03    1.93       5.3  T
   7   -149.3194090 -0.332269E-07  0.116E-03    1.93       8.8  T
   8   -149.3194090 -0.925448E-08  0.695E-04    1.93      14.7  T
   9   -149.3194090 -0.128560E-07  0.310E-04    1.93      33.0  T
     SCC iter.                  ...        0 min,  1.553 sec
     gradient                   ...        0 min,  0.140 sec
 * total energy  :  -147.1844922 Eh     change       -0.1164670E-02 Eh
   gradient norm :     0.0104072 Eh/α   predicted    -0.1207576E-02 (   3.68%)
   displ. norm   :     0.6218906 α      lambda       -0.1175814E-02
   maximum displ.:     0.2675872 α      in ANC's #1, #13, #5, ...

........................................................................
.............................. CYCLE   14 ..............................
........................................................................

 iter      E             dE          RMSdq      gap      omega  full diag
   1   -149.3201668 -0.149320E+03  0.152E-01    1.87       0.0  T
   2   -149.3201854 -0.185674E-04  0.748E-02    1.87       1.0  T
   3   -149.3201796  0.581679E-05  0.189E-02    1.88       1.0  T
   4   -149.3201867 -0.715617E-05  0.101E-02    1.88       1.0  T
   5   -149.3201901 -0.334343E-05  0.316E-03    1.88       3.2  T
   6   -149.3201906 -0.522607E-06  0.150E-03    1.88       6.8  T
   7   -149.3201906 -0.299592E-07  0.101E-03    1.88      10.2  T
   8   -149.3201906 -0.165829E-07  0.553E-04    1.88      18.4  T
   9   -149.3201907 -0.141458E-08  0.317E-04    1.88      32.2  T
     SCC iter.                  ...        0 min,  1.349 sec
     gradient                   ...        0 min,  0.123 sec
 * total energy  :  -147.1854371 Eh     change       -0.9448394E-03 Eh
   gradient norm :     0.0096408 Eh/α   predicted    -0.8152845E-03 ( -13.71%)
   displ. norm   :     0.6507422 α      lambda       -0.1168719E-02
   maximum displ.:     0.2534328 α      in ANC's #13, #5, #9, ...

........................................................................
.............................. CYCLE   15 ..............................
........................................................................

 iter      E             dE          RMSdq      gap      omega  full diag
   1   -149.3236844 -0.149324E+03  0.113E-01    1.87       0.0  T
   2   -149.3236942 -0.980640E-05  0.611E-02    1.87       1.0  T
   3   -149.3236878  0.636510E-05  0.156E-02    1.87       1.0  T
   4   -149.3236951 -0.725769E-05  0.769E-03    1.87       1.3  T
   5   -149.3236971 -0.198521E-05  0.275E-03    1.87       3.7  T
   6   -149.3236974 -0.259813E-06  0.151E-03    1.87       6.8  T
   7   -149.3236974 -0.250421E-07  0.102E-03    1.87      10.0  T
   8   -149.3236974 -0.174887E-07  0.489E-04    1.87      20.9  T
   9   -149.3236974 -0.153199E-08  0.237E-04    1.87      43.1  T
     SCC iter.                  ...        0 min,  1.388 sec
     gradient                   ...        0 min,  0.123 sec
 * total energy  :  -147.1863387 Eh     change       -0.9016207E-03 Eh
   gradient norm :     0.0104826 Eh/α   predicted    -0.8318199E-03 (  -7.74%)
   displ. norm   :     0.6425428 α      lambda       -0.1070750E-02
   maximum displ.:     0.2702869 α      in ANC's #9, #5, #13, ...

........................................................................
.............................. CYCLE   16 ..............................
........................................................................

 iter      E             dE          RMSdq      gap      omega  full diag
   1   -149.3264673 -0.149326E+03  0.956E-02    1.88       0.0  T
   2   -149.3264723 -0.500434E-05  0.537E-02    1.88       1.0  T
   3   -149.3264698  0.250194E-05  0.111E-02    1.88       1.0  T
   4   -149.3264724 -0.256817E-05  0.554E-03    1.88       1.8  T
   5   -149.3264737 -0.138925E-05  0.221E-03    1.88       4.6  T
   6   -149.3264739 -0.128551E-06  0.126E-03    1.88       8.1  T
   7   -149.3264739 -0.282151E-08  0.858E-04    1.88      11.9  T
   8   -149.3264739 -0.190516E-07  0.336E-04    1.88      30.4  T
     SCC iter.                  ...        0 min,  1.238 sec
     gradient                   ...        0 min,  0.123 sec
 * total energy  :  -147.1871258 Eh     change       -0.7871693E-03 Eh
   gradient norm :     0.0096877 Eh/α   predicted    -0.7564258E-03 (  -3.91%)
   displ. norm   :     0.6163564 α      lambda       -0.8443949E-03
   maximum displ.:     0.2797900 α      in ANC's #9, #5, #13, ...

........................................................................
.............................. CYCLE   17 ..............................
........................................................................

 iter      E             dE          RMSdq      gap      omega  full diag
   1   -149.3230232 -0.149323E+03  0.796E-02    1.89       0.0  T
   2   -149.3230265 -0.334110E-05  0.450E-02    1.89       1.0  T
   3   -149.3230234  0.309831E-05  0.919E-03    1.89       1.1  T
   4   -149.3230268 -0.335224E-05  0.434E-03    1.89       2.4  T
   5   -149.3230276 -0.851791E-06  0.177E-03    1.89       5.8  T
   6   -149.3230277 -0.125745E-06  0.102E-03    1.89      10.0  T
   7   -149.3230277 -0.547541E-08  0.666E-04    1.89      15.3  T
   8   -149.3230278 -0.965855E-08  0.260E-04    1.89      39.3  T
     SCC iter.                  ...        0 min,  1.244 sec
     gradient                   ...        0 min,  0.137 sec
 * total energy  :  -147.1878138 Eh     change       -0.6879114E-03 Eh
   gradient norm :     0.0088955 Eh/α   predicted    -0.5825921E-03 ( -15.31%)
   displ. norm   :     0.5874274 α      lambda       -0.8719132E-03
   maximum displ.:     0.3024812 α      in ANC's #9, #5, #7, ...

........................................................................
.............................. CYCLE   18 ..............................
........................................................................

 iter      E             dE          RMSdq      gap      omega  full diag
   1   -149.3287530 -0.149329E+03  0.772E-02    1.89       0.0  T
   2   -149.3287582 -0.521878E-05  0.410E-02    1.89       1.0  T
   3   -149.3287535  0.474470E-05  0.112E-02    1.89       1.0  T
   4   -149.3287590 -0.558306E-05  0.508E-03    1.89       2.0  T
   5   -149.3287600 -0.941028E-06  0.145E-03    1.89       7.0  T
   6   -149.3287601 -0.113842E-06  0.714E-04    1.89      14.3  T
   7   -149.3287601 -0.190309E-07  0.415E-04    1.89      24.6  T
     SCC iter.                  ...        0 min,  1.101 sec
     gradient                   ...        0 min,  0.132 sec
 * total energy  :  -147.1885206 Eh     change       -0.7068097E-03 Eh
   gradient norm :     0.0091373 Eh/α   predicted    -0.5863926E-03 ( -17.04%)
   displ. norm   :     0.6667546 α      lambda       -0.9080908E-03
   maximum displ.:     0.3305101 α      in ANC's #9, #5, #7, ...

........................................................................
.............................. CYCLE   19 ..............................
........................................................................

 iter      E             dE          RMSdq      gap      omega  full diag
   1   -149.3235727 -0.149324E+03  0.853E-02    1.87       0.0  T
   2   -149.3235777 -0.493542E-05  0.473E-02    1.87       1.0  T
   3   -149.3235712  0.646088E-05  0.109E-02    1.87       1.0  T
   4   -149.3235783 -0.705542E-05  0.472E-03    1.87       2.2  T
   5   -149.3235794 -0.114116E-05  0.149E-03    1.87       6.9  T
   6   -149.3235795 -0.119818E-06  0.610E-04    1.87      16.7  T
   7   -149.3235795 -0.178621E-07  0.345E-04    1.87      29.5  T
     SCC iter.                  ...        0 min,  0.922 sec
     gradient                   ...        0 min,  0.123 sec
 * total energy  :  -147.1892534 Eh     change       -0.7328026E-03 Eh
   gradient norm :     0.0104290 Eh/α   predicted    -0.6558973E-03 ( -10.49%)
   displ. norm   :     0.6738077 α      lambda       -0.9284700E-03
   maximum displ.:     0.3398463 α      in ANC's #9, #5, #7, ...

........................................................................
.............................. CYCLE   20 ..............................
........................................................................

 iter      E             dE          RMSdq      gap      omega  full diag
   1   -149.3261167 -0.149326E+03  0.104E-01    1.85       0.0  T
   2   -149.3261241 -0.744471E-05  0.540E-02    1.85       1.0  T
   3   -149.3261208  0.332827E-05  0.121E-02    1.85       1.0  T
   4   -149.3261236 -0.280508E-05  0.659E-03    1.85       1.5  T
   5   -149.3261260 -0.237882E-05  0.184E-03    1.85       5.6  T
   6   -149.3261262 -0.181786E-06  0.773E-04    1.85      13.2  T
   7   -149.3261262 -0.176618E-07  0.469E-04    1.85      21.7  T
     SCC iter.                  ...        0 min,  0.778 sec
     gradient                   ...        0 min,  0.129 sec
 * total energy  :  -147.1899864 Eh     change       -0.7330000E-03 Eh
   gradient norm :     0.0114802 Eh/α   predicted    -0.6750063E-03 (  -7.91%)
   displ. norm   :     0.6912069 α      lambda       -0.8739859E-03
   maximum displ.:     0.3528790 α      in ANC's #9, #5, #7, ...
 * RMSD in coord.:     0.9898855 α      energy gain  -0.1879396E+00 Eh

generating ANC from exact Hessian ...
Using Lindh-Hessian (1995)
 Shifting diagonal of input Hessian by    1.0369637769270832E-002
 Lowest  eigenvalues of input Hessian
    0.010000    0.000000    0.000000    0.000000    0.000000    0.000000
    0.000000    0.010429    0.010438    0.010528    0.010588    0.010663
    0.010757    0.010773    0.010862    0.011057    0.011181    0.011538
 Highest eigenvalues
    2.045604    2.109946    2.121996    2.144212    2.148540    2.322253


........................................................................
.............................. CYCLE   21 ..............................
........................................................................

 iter      E             dE          RMSdq      gap      omega  full diag
   1   -149.3260783 -0.149326E+03  0.100E-01    1.84       0.0  T
   2   -149.3260837 -0.543472E-05  0.533E-02    1.84       1.0  T
   3   -149.3260819  0.181736E-05  0.111E-02    1.84       1.0  T
   4   -149.3260828 -0.944445E-06  0.603E-03    1.84       1.7  T
   5   -149.3260851 -0.227666E-05  0.161E-03    1.84       6.4  T
   6   -149.3260852 -0.126422E-06  0.730E-04    1.84      14.0  T
   7   -149.3260853 -0.155056E-07  0.440E-04    1.84      23.2  T
     SCC iter.                  ...        0 min,  1.108 sec
     gradient                   ...        0 min,  0.138 sec
 * total energy  :  -147.1907142 Eh     change       -0.7278397E-03 Eh
   gradient norm :     0.0097407 Eh/α   predicted     0.0000000E+00 (-100.00%)
   displ. norm   :     0.1193368 α      lambda       -0.3324318E-03
   maximum displ.:     0.0429067 α      in ANC's #7, #9, #13, ...

........................................................................
.............................. CYCLE   22 ..............................
........................................................................

 iter      E             dE          RMSdq      gap      omega  full diag
   1   -149.3298425 -0.149330E+03  0.281E-02    1.84       0.0  T
   2   -149.3298434 -0.973239E-06  0.160E-02    1.84       1.0  T
   3   -149.3298425  0.923034E-06  0.459E-03    1.84       2.2  T
   4   -149.3298436 -0.112781E-05  0.182E-03    1.84       5.6  T
   5   -149.3298437 -0.776774E-07  0.724E-04    1.84      14.1  T
   6   -149.3298437 -0.193227E-07  0.407E-04    1.84      25.1  T
     SCC iter.                  ...        0 min,  0.916 sec
     gradient                   ...        0 min,  0.120 sec
 * total energy  :  -147.1909870 Eh     change       -0.2727579E-03 Eh
   gradient norm :     0.0053442 Eh/α   predicted    -0.1685839E-03 ( -38.19%)
   displ. norm   :     0.3432594 α      lambda       -0.5912103E-03
   maximum displ.:     0.1370644 α      in ANC's #7, #9, #13, ...

........................................................................
.............................. CYCLE   23 ..............................
........................................................................

 iter      E             dE          RMSdq      gap      omega  full diag
   1   -149.3339888 -0.149334E+03  0.622E-02    1.85       0.0  T
   2   -149.3339923 -0.350996E-05  0.367E-02    1.85       1.0  T
   3   -149.3339872  0.512691E-05  0.897E-03    1.86       1.1  T
   4   -149.3339933 -0.610739E-05  0.237E-03    1.86       4.3  T
   5   -149.3339935 -0.163144E-06  0.104E-03    1.85       9.8  T
   6   -149.3339935 -0.295312E-07  0.588E-04    1.85      17.4  T
   7   -149.3339935 -0.112364E-07  0.371E-04    1.85      27.5  T
     SCC iter.                  ...        0 min,  1.082 sec
     gradient                   ...        0 min,  0.189 sec
 * total energy  :  -147.1913822 Eh     change       -0.3952377E-03 Eh
   gradient norm :     0.0050983 Eh/α   predicted    -0.3304502E-03 ( -16.39%)
   displ. norm   :     0.3297909 α      lambda       -0.3209292E-03
   maximum displ.:     0.1390014 α      in ANC's #9, #7, #13, ...

........................................................................
.............................. CYCLE   24 ..............................
........................................................................

 iter      E             dE          RMSdq      gap      omega  full diag
   1   -149.3341490 -0.149334E+03  0.524E-02    1.86       0.0  T
   2   -149.3341501 -0.106808E-05  0.301E-02    1.86       1.0  T
   3   -149.3341487  0.138479E-05  0.559E-03    1.86       1.8  T
   4   -149.3341502 -0.147977E-05  0.270E-03    1.86       3.8  T
   5   -149.3341505 -0.335896E-06  0.843E-04    1.86      12.1  T
   6   -149.3341505 -0.150714E-07  0.541E-04    1.86      18.9  T
     SCC iter.                  ...        0 min,  0.960 sec
     gradient                   ...        0 min,  0.131 sec
 * total energy  :  -147.1916412 Eh     change       -0.2589620E-03 Eh
   gradient norm :     0.0079678 Eh/α   predicted    -0.1779208E-03 ( -31.29%)
   displ. norm   :     0.5040693 α      lambda       -0.4718564E-03
   maximum displ.:     0.2120676 α      in ANC's #7, #9, #13, ...

........................................................................
.............................. CYCLE   25 ..............................
........................................................................

 iter      E             dE          RMSdq      gap      omega  full diag
   1   -149.3317410 -0.149332E+03  0.728E-02    1.86       0.0  T
   2   -149.3317426 -0.158555E-05  0.423E-02    1.86       1.0  T
   3   -149.3317418  0.745591E-06  0.482E-03    1.86       2.1  T
   4   -149.3317426 -0.760986E-06  0.268E-03    1.86       3.8  T
   5   -149.3317431 -0.488674E-06  0.100E-03    1.86      10.2  T
   6   -149.3317431 -0.259310E-07  0.536E-04    1.86      19.0  T
   7   -149.3317431 -0.364528E-08  0.361E-04    1.86      28.3  T
     SCC iter.                  ...        0 min,  1.205 sec
     gradient                   ...        0 min,  0.142 sec
 * total energy  :  -147.1920516 Eh     change       -0.4104561E-03 Eh
   gradient norm :     0.0091562 Eh/α   predicted    -0.2958827E-03 ( -27.91%)
   displ. norm   :     0.6309475 α      lambda       -0.6406404E-03
   maximum displ.:     0.2690972 α      in ANC's #13, #7, #9, ...

........................................................................
.............................. CYCLE   26 ..............................
........................................................................

 iter      E             dE          RMSdq      gap      omega  full diag
   1   -149.3279265 -0.149328E+03  0.857E-02    1.87       0.0  T
   2   -149.3279295 -0.304363E-05  0.504E-02    1.87       1.0  T
   3   -149.3279265  0.300288E-05  0.683E-03    1.87       1.5  T
   4   -149.3279302 -0.369820E-05  0.242E-03    1.87       4.2  T
   5   -149.3279305 -0.277668E-06  0.104E-03    1.87       9.8  T
   6   -149.3279305 -0.107297E-07  0.453E-04    1.87      22.5  T
   7   -149.3279305 -0.107208E-07  0.223E-04    1.87      45.7  T
     SCC iter.                  ...        0 min,  1.071 sec
     gradient                   ...        0 min,  0.119 sec
 * total energy  :  -147.1925998 Eh     change       -0.5481440E-03 Eh
   gradient norm :     0.0084556 Eh/α   predicted    -0.4478400E-03 ( -18.30%)
   displ. norm   :     0.6595831 α      lambda       -0.6800479E-03
   maximum displ.:     0.2798875 α      in ANC's #7, #9, #13, ...

........................................................................
.............................. CYCLE   27 ..............................
........................................................................

 iter      E             dE          RMSdq      gap      omega  full diag
   1   -149.3254510 -0.149325E+03  0.904E-02    1.86       0.0  T
   2   -149.3254551 -0.414853E-05  0.527E-02    1.86       1.0  T
   3   -149.3254504  0.471054E-05  0.892E-03    1.86       1.1  T
   4   -149.3254560 -0.564092E-05  0.311E-03    1.86       3.3  T
   5   -149.3254564 -0.393116E-06  0.121E-03    1.86       8.4  T
   6   -149.3254565 -0.363794E-07  0.574E-04    1.86      17.8  T
   7   -149.3254565 -0.134832E-07  0.349E-04    1.86      29.2  T
     SCC iter.                  ...        0 min,  1.052 sec
     gradient                   ...        0 min,  0.123 sec
 * total energy  :  -147.1931659 Eh     change       -0.5661220E-03 Eh
   gradient norm :     0.0085408 Eh/α   predicted    -0.4879522E-03 ( -13.81%)
   displ. norm   :     0.6324547 α      lambda       -0.6598603E-03
   maximum displ.:     0.2677926 α      in ANC's #7, #9, #13, ...

........................................................................
.............................. CYCLE   28 ..............................
........................................................................

 iter      E             dE          RMSdq      gap      omega  full diag
   1   -149.3264633 -0.149326E+03  0.865E-02    1.86       0.0  T
   2   -149.3264668 -0.349974E-05  0.500E-02    1.86       1.0  T
   3   -149.3264622  0.454267E-05  0.911E-03    1.86       1.1  T
   4   -149.3264676 -0.535307E-05  0.344E-03    1.86       3.0  T
   5   -149.3264680 -0.443885E-06  0.107E-03    1.86       9.5  T
   6   -149.3264681 -0.396163E-07  0.543E-04    1.86      18.8  T
   7   -149.3264681 -0.106459E-07  0.334E-04    1.86      30.6  T
     SCC iter.                  ...        0 min,  1.084 sec
     gradient                   ...        0 min,  0.132 sec
 * total energy  :  -147.1937171 Eh     change       -0.5511864E-03 Eh
   gradient norm :     0.0093215 Eh/α   predicted    -0.4619073E-03 ( -16.20%)
   displ. norm   :     0.6516226 α      lambda       -0.6711496E-03
   maximum displ.:     0.2728779 α      in ANC's #7, #9, #13, ...

........................................................................
.............................. CYCLE   29 ..............................
........................................................................

 iter      E             dE          RMSdq      gap      omega  full diag
   1   -149.3289617 -0.149329E+03  0.894E-02    1.85       0.0  T
   2   -149.3289644 -0.268248E-05  0.513E-02    1.85       1.0  T
   3   -149.3289619  0.245938E-05  0.852E-03    1.85       1.2  T
   4   -149.3289645 -0.256858E-05  0.414E-03    1.85       2.5  T
   5   -149.3289655 -0.948778E-06  0.136E-03    1.85       7.5  T
   6   -149.3289655 -0.492938E-07  0.867E-04    1.85      11.8  T
   7   -149.3289655 -0.647529E-08  0.527E-04    1.85      19.4  T
     SCC iter.                  ...        0 min,  1.400 sec
     gradient                   ...        0 min,  0.136 sec
 * total energy  :  -147.1942895 Eh     change       -0.5723937E-03 Eh
   gradient norm :     0.0089394 Eh/α   predicted    -0.4780652E-03 ( -16.48%)
   displ. norm   :     0.6786694 α      lambda       -0.6791520E-03
   maximum displ.:     0.2801271 α      in ANC's #7, #9, #12, ...

........................................................................
.............................. CYCLE   30 ..............................
........................................................................

 iter      E             dE          RMSdq      gap      omega  full diag
   1   -149.3324529 -0.149332E+03  0.994E-02    1.86       0.0  T
   2   -149.3324575 -0.464759E-05  0.552E-02    1.86       1.0  T
   3   -149.3324556  0.197115E-05  0.115E-02    1.86       1.0  T
   4   -149.3324572 -0.158789E-05  0.600E-03    1.85       1.7  T
   5   -149.3324591 -0.193091E-05  0.205E-03    1.85       5.0  T
   6   -149.3324592 -0.726649E-07  0.131E-03    1.85       7.8  T
   7   -149.3324592 -0.560482E-08  0.743E-04    1.85      13.7  T
   8   -149.3324592 -0.162431E-07  0.327E-04    1.85      31.2  T
     SCC iter.                  ...        0 min,  1.273 sec
     gradient                   ...        0 min,  0.133 sec
 * total energy  :  -147.1948598 Eh     change       -0.5703662E-03 Eh
   gradient norm :     0.0068336 Eh/α   predicted    -0.4959825E-03 ( -13.04%)
   displ. norm   :     0.7310583 α      lambda       -0.5883636E-03
   maximum displ.:     0.3027131 α      in ANC's #7, #9, #3, ...

........................................................................
.............................. CYCLE   31 ..............................
........................................................................

 iter      E             dE          RMSdq      gap      omega  full diag
   1   -149.3315289 -0.149332E+03  0.104E-01    1.85       0.0  T
   2   -149.3315341 -0.513766E-05  0.592E-02    1.86       1.0  T
   3   -149.3315314  0.268339E-05  0.114E-02    1.86       1.0  T
   4   -149.3315342 -0.280116E-05  0.552E-03    1.86       1.8  T
   5   -149.3315355 -0.137456E-05  0.222E-03    1.86       4.6  T
   6   -149.3315357 -0.111106E-06  0.126E-03    1.86       8.1  T
   7   -149.3315357 -0.207869E-07  0.800E-04    1.86      12.8  T
   8   -149.3315357 -0.119295E-07  0.313E-04    1.86      32.6  T
     SCC iter.                  ...        0 min,  1.157 sec
     gradient                   ...        0 min,  0.123 sec
 * total energy  :  -147.1953473 Eh     change       -0.4875005E-03 Eh
   gradient norm :     0.0060566 Eh/α   predicted    -0.4514095E-03 (  -7.40%)
   displ. norm   :     0.6077436 α      lambda       -0.5984149E-03
   maximum displ.:     0.2338277 α      in ANC's #12, #3, #7, ...

........................................................................
.............................. CYCLE   32 ..............................
........................................................................

 iter      E             dE          RMSdq      gap      omega  full diag
   1   -149.3480774 -0.149348E+03  0.101E-01    1.86       0.0  T
   2   -149.3480883 -0.109604E-04  0.537E-02    1.87       1.0  T
   3   -149.3480837  0.459842E-05  0.154E-02    1.87       1.0  T
   4   -149.3480894 -0.568660E-05  0.794E-03    1.87       1.3  T
   5   -149.3480913 -0.183519E-05  0.267E-03    1.87       3.8  T
   6   -149.3480914 -0.108486E-06  0.152E-03    1.87       6.7  T
   7   -149.3480914 -0.469775E-07  0.977E-04    1.87      10.4  T
   8   -149.3480914 -0.113600E-07  0.481E-04    1.87      21.2  T
     SCC iter.                  ...        0 min,  1.145 sec
     gradient                   ...        0 min,  0.125 sec
 * total energy  :  -147.1955361 Eh     change       -0.1887417E-03 Eh
   gradient norm :     0.0116281 Eh/α   predicted    -0.4097498E-03 ( 117.10%)
   displ. norm   :     0.5882786 α      lambda       -0.6823153E-03
   maximum displ.:     0.2506568 α      in ANC's #7, #9, #13, ...

........................................................................
.............................. CYCLE   33 ..............................
........................................................................

 iter      E             dE          RMSdq      gap      omega  full diag
   1   -149.3334644 -0.149333E+03  0.862E-02    1.88       0.0  T
   2   -149.3334703 -0.586045E-05  0.497E-02    1.88       1.0  T
   3   -149.3334689  0.142326E-05  0.774E-03    1.88       1.3  T
   4   -149.3334707 -0.185919E-05  0.361E-03    1.88       2.8  T
   5   -149.3334714 -0.651066E-06  0.150E-03    1.88       6.8  T
   6   -149.3334714 -0.441779E-07  0.678E-04    1.88      15.1  T
   7   -149.3334714 -0.127611E-07  0.437E-04    1.88      23.4  T
     SCC iter.                  ...        0 min,  1.109 sec
     gradient                   ...        0 min,  0.140 sec
 * total energy  :  -147.1959488 Eh     change       -0.4126785E-03 Eh
   gradient norm :     0.0076797 Eh/α   predicted    -0.4592270E-03 (  11.28%)
   displ. norm   :     0.4505251 α      lambda       -0.2274552E-03
   maximum displ.:     0.1946795 α      in ANC's #7, #3, #9, ...

........................................................................
.............................. CYCLE   34 ..............................
........................................................................

 iter      E             dE          RMSdq      gap      omega  full diag
   1   -149.3319881 -0.149332E+03  0.615E-02    1.88       0.0  T
   2   -149.3319900 -0.190426E-05  0.352E-02    1.89       1.0  T
   3   -149.3319892  0.738842E-06  0.624E-03    1.89       1.6  T
   4   -149.3319899 -0.719566E-06  0.293E-03    1.89       3.5  T
   5   -149.3319904 -0.497869E-06  0.120E-03    1.89       8.5  T
   6   -149.3319905 -0.443027E-07  0.599E-04    1.89      17.1  T
   7   -149.3319905 -0.278854E-08  0.373E-04    1.89      27.4  T
     SCC iter.                  ...        0 min,  1.096 sec
     gradient                   ...        0 min,  0.128 sec
 * total energy  :  -147.1961353 Eh     change       -0.1865732E-03 Eh
   gradient norm :     0.0070538 Eh/α   predicted    -0.1368139E-03 ( -26.67%)
   displ. norm   :     0.4186608 α      lambda       -0.3954672E-03
   maximum displ.:     0.2096645 α      in ANC's #3, #7, #5, ...

........................................................................
.............................. CYCLE   35 ..............................
........................................................................

 iter      E             dE          RMSdq      gap      omega  full diag
   1   -149.3373862 -0.149337E+03  0.590E-02    1.90       0.0  T
   2   -149.3373920 -0.577834E-05  0.330E-02    1.90       1.0  T
   3   -149.3373892  0.281451E-05  0.979E-03    1.90       1.0  T
   4   -149.3373924 -0.320751E-05  0.364E-03    1.90       2.8  T
   5   -149.3373933 -0.885279E-06  0.124E-03    1.90       8.2  T
   6   -149.3373933 -0.447721E-07  0.536E-04    1.90      19.0  T
   7   -149.3373934 -0.177889E-07  0.230E-04    1.90      44.4  T
     SCC iter.                  ...        0 min,  1.007 sec
     gradient                   ...        0 min,  0.136 sec
 * total energy  :  -147.1964000 Eh     change       -0.2646613E-03 Eh
   gradient norm :     0.0042057 Eh/α   predicted    -0.2323978E-03 ( -12.19%)
   displ. norm   :     0.5670075 α      lambda       -0.2396954E-03
   maximum displ.:     0.2649698 α      in ANC's #3, #7, #9, ...

........................................................................
.............................. CYCLE   36 ..............................
........................................................................

 iter      E             dE          RMSdq      gap      omega  full diag
   1   -149.3367425 -0.149337E+03  0.808E-02    1.90       0.0  T
   2   -149.3367463 -0.384635E-05  0.446E-02    1.90       1.0  T
   3   -149.3367456  0.732511E-06  0.915E-03    1.90       1.1  T
   4   -149.3367459 -0.301821E-06  0.458E-03    1.90       2.2  T
   5   -149.3367472 -0.132566E-05  0.157E-03    1.90       6.5  T
   6   -149.3367473 -0.704584E-07  0.845E-04    1.90      12.1  T
   7   -149.3367473 -0.287056E-08  0.590E-04    1.90      17.3  T
     SCC iter.                  ...        0 min,  1.261 sec
     gradient                   ...        0 min,  0.121 sec
 * total energy  :  -147.1965706 Eh     change       -0.1706583E-03 Eh
   gradient norm :     0.0047745 Eh/α   predicted    -0.1583793E-03 (  -7.20%)
   displ. norm   :     0.4296878 α      lambda       -0.2072453E-03
   maximum displ.:     0.2282386 α      in ANC's #3, #7, #5, ...

........................................................................
.............................. CYCLE   37 ..............................
........................................................................

 iter      E             dE          RMSdq      gap      omega  full diag
   1   -149.3396263 -0.149340E+03  0.584E-02    1.91       0.0  T
   2   -149.3396284 -0.214242E-05  0.322E-02    1.91       1.0  T
   3   -149.3396277  0.655975E-06  0.683E-03    1.91       1.5  T
   4   -149.3396284 -0.623309E-06  0.348E-03    1.91       2.9  T
   5   -149.3396290 -0.595515E-06  0.116E-03    1.91       8.8  T
   6   -149.3396290 -0.312650E-07  0.633E-04    1.91      16.1  T
   7   -149.3396290 -0.165127E-08  0.446E-04    1.91      22.9  T
     SCC iter.                  ...        0 min,  0.890 sec
     gradient                   ...        0 min,  0.126 sec
 * total energy  :  -147.1967144 Eh     change       -0.1437693E-03 Eh
   gradient norm :     0.0044609 Eh/α   predicted    -0.1227551E-03 ( -14.62%)
   displ. norm   :     0.4416282 α      lambda       -0.1859152E-03
   maximum displ.:     0.2393550 α      in ANC's #3, #7, #5, ...

........................................................................
.............................. CYCLE   38 ..............................
........................................................................

 iter      E             dE          RMSdq      gap      omega  full diag
   1   -149.3398745 -0.149340E+03  0.559E-02    1.91       0.0  T
   2   -149.3398766 -0.212358E-05  0.313E-02    1.91       1.0  T
   3   -149.3398761  0.496200E-06  0.632E-03    1.91       1.6  T
   4   -149.3398767 -0.552123E-06  0.326E-03    1.91       3.1  T
   5   -149.3398771 -0.425021E-06  0.114E-03    1.91       9.0  T
   6   -149.3398771 -0.292627E-07  0.627E-04    1.91      16.3  T
   7   -149.3398771  0.272195E-09  0.441E-04    1.91      23.2  T
     SCC iter.                  ...        0 min,  0.912 sec
     gradient                   ...        0 min,  0.171 sec
 * total energy  :  -147.1968413 Eh     change       -0.1268947E-03 Eh
   gradient norm :     0.0044550 Eh/α   predicted    -0.1110897E-03 ( -12.46%)
   displ. norm   :     0.3518387 α      lambda       -0.1633345E-03
   maximum displ.:     0.2045926 α      in ANC's #3, #7, #4, ...

........................................................................
.............................. CYCLE   39 ..............................
........................................................................

 iter      E             dE          RMSdq      gap      omega  full diag
   1   -149.3410162 -0.149341E+03  0.449E-02    1.90       0.0  T
   2   -149.3410176 -0.140478E-05  0.245E-02    1.90       1.0  T
   3   -149.3410172  0.414625E-06  0.549E-03    1.90       1.9  T
   4   -149.3410179 -0.629544E-06  0.247E-03    1.90       4.1  T
   5   -149.3410180 -0.145668E-06  0.857E-04    1.90      11.9  T
   6   -149.3410180 -0.282784E-07  0.407E-04    1.90      25.1  T
     SCC iter.                  ...        0 min,  0.991 sec
     gradient                   ...        0 min,  0.147 sec
 * total energy  :  -147.1969576 Eh     change       -0.1162869E-03 Eh
   gradient norm :     0.0044771 Eh/α   predicted    -0.9177718E-04 ( -21.08%)
   displ. norm   :     0.3490283 α      lambda       -0.1586045E-03
   maximum displ.:     0.2075633 α      in ANC's #3, #7, #10, ...

........................................................................
.............................. CYCLE   40 ..............................
........................................................................

 iter      E             dE          RMSdq      gap      omega  full diag
   1   -149.3399311 -0.149340E+03  0.404E-02    1.89       0.0  T
   2   -149.3399320 -0.929292E-06  0.230E-02    1.89       1.0  T
   3   -149.3399316  0.493258E-06  0.423E-03    1.89       2.4  T
   4   -149.3399322 -0.667230E-06  0.164E-03    1.89       6.2  T
   5   -149.3399323 -0.693173E-07  0.744E-04    1.89      13.7  T
   6   -149.3399323 -0.359697E-07  0.271E-04    1.89      37.7  T
     SCC iter.                  ...        0 min,  0.818 sec
     gradient                   ...        0 min,  0.130 sec
 * total energy  :  -147.1970713 Eh     change       -0.1137489E-03 Eh
   gradient norm :     0.0043348 Eh/α   predicted    -0.8896442E-04 ( -21.79%)
   displ. norm   :     0.3307045 α      lambda       -0.1401307E-03
   maximum displ.:     0.1992137 α      in ANC's #3, #7, #10, ...

........................................................................
.............................. CYCLE   41 ..............................
........................................................................

 iter      E             dE          RMSdq      gap      omega  full diag
   1   -149.3387073 -0.149339E+03  0.375E-02    1.89       0.0  T
   2   -149.3387079 -0.576846E-06  0.218E-02    1.89       1.0  T
   3   -149.3387072  0.697939E-06  0.357E-03    1.89       2.9  T
   4   -149.3387081 -0.898672E-06  0.121E-03    1.89       8.5  T
   5   -149.3387081 -0.332784E-07  0.646E-04    1.89      15.8  T
   6   -149.3387081 -0.133526E-07  0.311E-04    1.89      32.8  T
     SCC iter.                  ...        0 min,  0.822 sec
     gradient                   ...        0 min,  0.121 sec
 * total energy  :  -147.1971732 Eh     change       -0.1018752E-03 Eh
   gradient norm :     0.0043238 Eh/α   predicted    -0.7772837E-04 ( -23.70%)
   displ. norm   :     0.3047411 α      lambda       -0.1211663E-03
   maximum displ.:     0.1876509 α      in ANC's #3, #10, #12, ...

........................................................................
.............................. CYCLE   42 ..............................
........................................................................

 iter      E             dE          RMSdq      gap      omega  full diag
   1   -149.3392423 -0.149339E+03  0.366E-02    1.88       0.0  T
   2   -149.3392430 -0.740672E-06  0.214E-02    1.88       1.0  T
   3   -149.3392418  0.122796E-05  0.445E-03    1.89       2.3  T
   4   -149.3392433 -0.149020E-05  0.149E-03    1.89       6.8  T
   5   -149.3392433 -0.358773E-07  0.832E-04    1.89      12.3  T
   6   -149.3392433 -0.156208E-07  0.402E-04    1.89      25.4  T
     SCC iter.                  ...        0 min,  0.968 sec
     gradient                   ...        0 min,  0.184 sec
 * total energy  :  -147.1972583 Eh     change       -0.8512799E-04 Eh
   gradient norm :     0.0037593 Eh/α   predicted    -0.6620955E-04 ( -22.22%)
   displ. norm   :     0.2763215 α      lambda       -0.8922210E-04
   maximum displ.:     0.1770735 α      in ANC's #3, #10, #7, ...
 * RMSD in coord.:     0.9425592 α      energy gain  -0.7271982E-02 Eh

generating ANC from exact Hessian ...
Using Lindh-Hessian (1995)
 Shifting diagonal of input Hessian by    1.0225107017690473E-002
 Lowest  eigenvalues of input Hessian
    0.010000    0.000000    0.000000    0.000000    0.000000    0.000000
    0.000000    0.010288    0.010291    0.010359    0.010397    0.010533
    0.010582    0.010623    0.010780    0.010960    0.011102    0.011305
 Highest eigenvalues
    2.050776    2.108152    2.121195    2.146930    2.149249    2.335765


........................................................................
.............................. CYCLE   43 ..............................
........................................................................

 iter      E             dE          RMSdq      gap      omega  full diag
   1   -149.3380847 -0.149338E+03  0.314E-02    1.89       0.0  T
   2   -149.3380854 -0.682089E-06  0.183E-02    1.89       1.0  T
   3   -149.3380848  0.613628E-06  0.349E-03    1.90       2.9  T
   4   -149.3380855 -0.739631E-06  0.132E-03    1.90       7.7  T
   5   -149.3380856 -0.865370E-07  0.598E-04    1.90      17.1  T
   6   -149.3380856 -0.612738E-08  0.340E-04    1.90      30.0  T
     SCC iter.                  ...        0 min,  0.842 sec
     gradient                   ...        0 min,  0.121 sec
 * total energy  :  -147.1973230 Eh     change       -0.6465674E-04 Eh
   gradient norm :     0.0032979 Eh/α   predicted     0.0000000E+00 (-100.00%)
   displ. norm   :     0.0449000 α      lambda       -0.4615544E-04
   maximum displ.:     0.0154910 α      in ANC's #3, #9, #28, ...

........................................................................
.............................. CYCLE   44 ..............................
........................................................................

 iter      E             dE          RMSdq      gap      omega  full diag
   1   -149.3395266 -0.149340E+03  0.816E-03    1.90       0.0  T
   2   -149.3395267 -0.103414E-06  0.453E-03    1.90       2.3  T
   3   -149.3395266  0.102331E-06  0.152E-03    1.90       6.7  T
   4   -149.3395267 -0.135510E-06  0.473E-04    1.90      21.6  T
   5   -149.3395267 -0.293261E-08  0.177E-04    1.90      57.8  T
     SCC iter.                  ...        0 min,  0.794 sec
     gradient                   ...        0 min,  0.141 sec
 * total energy  :  -147.1973617 Eh     change       -0.3865384E-04 Eh
   gradient norm :     0.0016496 Eh/α   predicted    -0.2324392E-04 ( -39.87%)
   displ. norm   :     0.2250424 α      lambda       -0.9829478E-04
   maximum displ.:     0.0848664 α      in ANC's #3, #9, #7, ...

........................................................................
.............................. CYCLE   45 ..............................
........................................................................

 iter      E             dE          RMSdq      gap      omega  full diag
   1   -149.3423882 -0.149342E+03  0.314E-02    1.90       0.0  T
   2   -149.3423893 -0.109877E-05  0.177E-02    1.90       1.0  T
   3   -149.3423882  0.111662E-05  0.504E-03    1.90       2.0  T
   4   -149.3423896 -0.142526E-05  0.152E-03    1.90       6.7  T
   5   -149.3423897 -0.599308E-07  0.601E-04    1.90      17.0  T
   6   -149.3423897 -0.119421E-07  0.276E-04    1.90      37.0  T
     SCC iter.                  ...        0 min,  0.736 sec
     gradient                   ...        0 min,  0.127 sec
 * total energy  :  -147.1974308 Eh     change       -0.6909883E-04 Eh
   gradient norm :     0.0041379 Eh/α   predicted    -0.5025414E-04 ( -27.27%)
   displ. norm   :     0.0492140 α      lambda       -0.2906827E-04
   maximum displ.:     0.0235963 α      in ANC's #3, #9, #7, ...

........................................................................
.............................. CYCLE   46 ..............................
........................................................................

 iter      E             dE          RMSdq      gap      omega  full diag
   1   -149.3416910 -0.149342E+03  0.621E-03    1.90       0.0  T
   2   -149.3416910 -0.586772E-07  0.352E-03    1.90       2.9  T
   3   -149.3416910  0.382870E-07  0.110E-03    1.90       9.3  T
   4   -149.3416910 -0.504605E-07  0.426E-04    1.90      24.0  T
   5   -149.3416910 -0.430393E-08  0.188E-04    1.90      54.4  T
     SCC iter.                  ...        0 min,  0.685 sec
     gradient                   ...        0 min,  0.171 sec
 * total energy  :  -147.1974566 Eh     change       -0.2587955E-04 Eh
   gradient norm :     0.0030227 Eh/α   predicted    -0.1456962E-04 ( -43.70%)
   displ. norm   :     0.1933182 α      lambda       -0.8863202E-04
   maximum displ.:     0.0958630 α      in ANC's #3, #9, #7, ...

........................................................................
.............................. CYCLE   47 ..............................
........................................................................

 iter      E             dE          RMSdq      gap      omega  full diag
   1   -149.3391381 -0.149339E+03  0.232E-02    1.90       0.0  T
   2   -149.3391386 -0.567728E-06  0.131E-02    1.90       1.0  T
   3   -149.3391382  0.400725E-06  0.338E-03    1.90       3.0  T
   4   -149.3391388 -0.517523E-06  0.138E-03    1.90       7.4  T
   5   -149.3391388 -0.501487E-07  0.441E-04    1.90      23.2  T
   6   -149.3391388 -0.360532E-08  0.206E-04    1.90      49.5  T
     SCC iter.                  ...        0 min,  0.897 sec
     gradient                   ...        0 min,  0.140 sec
 * total energy  :  -147.1975134 Eh     change       -0.5675931E-04 Eh
   gradient norm :     0.0015903 Eh/α   predicted    -0.4597674E-04 ( -19.00%)
   displ. norm   :     0.2133067 α      lambda       -0.3288887E-04
   maximum displ.:     0.1120724 α      in ANC's #3, #9, #2, ...

........................................................................
.............................. CYCLE   48 ..............................
........................................................................

 iter      E             dE          RMSdq      gap      omega  full diag
   1   -149.3382406 -0.149338E+03  0.242E-02    1.91       0.0  T
   2   -149.3382410 -0.370793E-06  0.139E-02    1.91       1.0  T
   3   -149.3382407  0.270168E-06  0.300E-03    1.91       3.4  T
   4   -149.3382410 -0.311398E-06  0.155E-03    1.91       6.6  T
   5   -149.3382411 -0.916629E-07  0.659E-04    1.91      15.5  T
   6   -149.3382411 -0.756461E-08  0.417E-04    1.91      24.5  T
     SCC iter.                  ...        0 min,  0.716 sec
     gradient                   ...        0 min,  0.129 sec
 * total energy  :  -147.1975437 Eh     change       -0.3030612E-04 Eh
   gradient norm :     0.0028128 Eh/α   predicted    -0.1677832E-04 ( -44.64%)
   displ. norm   :     0.1233136 α      lambda       -0.3504687E-04
   maximum displ.:     0.0688246 α      in ANC's #3, #9, #2, ...

........................................................................
.............................. CYCLE   49 ..............................
........................................................................

 iter      E             dE          RMSdq      gap      omega  full diag
   1   -149.3385750 -0.149339E+03  0.161E-02    1.91       0.0  T
   2   -149.3385751 -0.168412E-06  0.890E-03    1.91       1.1  T
   3   -149.3385751  0.325780E-07  0.197E-03    1.91       5.2  T
   4   -149.3385751 -0.377894E-07  0.105E-03    1.91       9.8  T
   5   -149.3385752 -0.334142E-07  0.413E-04    1.91      24.7  T
   6   -149.3385752 -0.714999E-08  0.259E-04    1.91      39.4  T
     SCC iter.                  ...        0 min,  0.880 sec
     gradient                   ...        0 min,  0.134 sec
 * total energy  :  -147.1975743 Eh     change       -0.3055258E-04 Eh
   gradient norm :     0.0024590 Eh/α   predicted    -0.1779326E-04 ( -41.76%)
   displ. norm   :     0.2571507 α      lambda       -0.7837047E-04
   maximum displ.:     0.1440266 α      in ANC's #3, #9, #2, ...

........................................................................
.............................. CYCLE   50 ..............................
........................................................................

 iter      E             dE          RMSdq      gap      omega  full diag
   1   -149.3402863 -0.149340E+03  0.311E-02    1.90       0.0  T
   2   -149.3402870 -0.673921E-06  0.177E-02    1.90       1.0  T
   3   -149.3402867  0.324987E-06  0.366E-03    1.90       2.8  T
   4   -149.3402871 -0.424862E-06  0.153E-03    1.90       6.7  T
   5   -149.3402872 -0.696420E-07  0.668E-04    1.90      15.3  T
   6   -149.3402872 -0.164322E-07  0.354E-04    1.90      28.8  T
     SCC iter.                  ...        0 min,  0.851 sec
     gradient                   ...        0 min,  0.122 sec
 * total energy  :  -147.1976353 Eh     change       -0.6107913E-04 Eh
   gradient norm :     0.0016305 Eh/α   predicted    -0.4178546E-04 ( -31.59%)
   displ. norm   :     0.4762384 α      lambda       -0.6211717E-04
   maximum displ.:     0.2664298 α      in ANC's #3, #9, #2, ...

........................................................................
.............................. CYCLE   51 ..............................
........................................................................

 iter      E             dE          RMSdq      gap      omega  full diag
   1   -149.3400537 -0.149340E+03  0.564E-02    1.90       0.0  T
   2   -149.3400550 -0.133234E-05  0.322E-02    1.90       1.0  T
   3   -149.3400550  0.922524E-07  0.484E-03    1.90       2.1  T
   4   -149.3400552 -0.287285E-06  0.243E-03    1.90       4.2  T
   5   -149.3400554 -0.180403E-06  0.927E-04    1.90      11.0  T
   6   -149.3400555 -0.304663E-07  0.551E-04    1.90      18.5  T
     SCC iter.                  ...        0 min,  0.822 sec
     gradient                   ...        0 min,  0.164 sec
 * total energy  :  -147.1976931 Eh     change       -0.5773121E-04 Eh
   gradient norm :     0.0030040 Eh/α   predicted    -0.3419026E-04 ( -40.78%)
   displ. norm   :     0.1505066 α      lambda       -0.3365613E-04
   maximum displ.:     0.0872037 α      in ANC's #3, #9, #2, ...

........................................................................
.............................. CYCLE   52 ..............................
........................................................................

 iter      E             dE          RMSdq      gap      omega  full diag
   1   -149.3407752 -0.149341E+03  0.177E-02    1.90       0.0  T
   2   -149.3407754 -0.217048E-06  0.102E-02    1.90       1.0  T
   3   -149.3407753  0.695207E-07  0.165E-03    1.90       6.2  T
   4   -149.3407754 -0.100726E-06  0.793E-04    1.90      12.9  T
   5   -149.3407754 -0.214263E-07  0.320E-04    1.90      31.9  T
     SCC iter.                  ...        0 min,  0.674 sec
     gradient                   ...        0 min,  0.122 sec
 * total energy  :  -147.1977187 Eh     change       -0.2565353E-04 Eh
   gradient norm :     0.0023364 Eh/α   predicted    -0.1721040E-04 ( -32.91%)
   displ. norm   :     0.2025668 α      lambda       -0.3955249E-04
   maximum displ.:     0.1184526 α      in ANC's #3, #9, #2, ...

........................................................................
.............................. CYCLE   53 ..............................
........................................................................

 iter      E             dE          RMSdq      gap      omega  full diag
   1   -149.3406434 -0.149341E+03  0.234E-02    1.90       0.0  T
   2   -149.3406437 -0.322155E-06  0.135E-02    1.90       1.0  T
   3   -149.3406433  0.379845E-06  0.279E-03    1.90       3.7  T
   4   -149.3406438 -0.448161E-06  0.103E-03    1.90      10.0  T
   5   -149.3406438 -0.481072E-07  0.418E-04    1.90      24.4  T
   6   -149.3406438 -0.526276E-08  0.212E-04    1.90      48.1  T
     SCC iter.                  ...        0 min,  0.969 sec
     gradient                   ...        0 min,  0.163 sec
 * total energy  :  -147.1977515 Eh     change       -0.3278656E-04 Eh
   gradient norm :     0.0014681 Eh/α   predicted    -0.2058794E-04 ( -37.21%)
   displ. norm   :     0.3748229 α      lambda       -0.4325052E-04
   maximum displ.:     0.2210072 α      in ANC's #3, #2, #9, ...

........................................................................
.............................. CYCLE   54 ..............................
........................................................................

 iter      E             dE          RMSdq      gap      omega  full diag
   1   -149.3397212 -0.149340E+03  0.446E-02    1.90       0.0  T
   2   -149.3397225 -0.131304E-05  0.256E-02    1.91       1.0  T
   3   -149.3397213  0.117366E-05  0.527E-03    1.91       1.9  T
   4   -149.3397226 -0.130286E-05  0.214E-03    1.91       4.8  T
   5   -149.3397229 -0.277987E-06  0.848E-04    1.91      12.0  T
   6   -149.3397229 -0.235748E-07  0.443E-04    1.91      23.1  T
     SCC iter.                  ...        0 min,  0.723 sec
     gradient                   ...        0 min,  0.123 sec
 * total energy  :  -147.1977933 Eh     change       -0.4182348E-04 Eh
   gradient norm :     0.0022096 Eh/α   predicted    -0.2297908E-04 ( -45.06%)
   displ. norm   :     0.1148142 α      lambda       -0.1745455E-04
   maximum displ.:     0.0700944 α      in ANC's #3, #2, #9, ...

........................................................................
.............................. CYCLE   55 ..............................
........................................................................

 iter      E             dE          RMSdq      gap      omega  full diag
   1   -149.3400458 -0.149340E+03  0.140E-02    1.91       0.0  T
   2   -149.3400459 -0.897302E-07  0.796E-03    1.91       1.3  T
   3   -149.3400459  0.424654E-07  0.133E-03    1.91       7.7  T
   4   -149.3400459 -0.499257E-07  0.669E-04    1.91      15.3  T
   5   -149.3400459 -0.229575E-07  0.219E-04    1.91      46.6  T
     SCC iter.                  ...        0 min,  0.716 sec
     gradient                   ...        0 min,  0.131 sec
 * total energy  :  -147.1978090 Eh     change       -0.1569098E-04 Eh
   gradient norm :     0.0020931 Eh/α   predicted    -0.8843304E-05 ( -43.64%)
   displ. norm   :     0.1881414 α      lambda       -0.3708435E-04
   maximum displ.:     0.1128952 α      in ANC's #3, #2, #7, ...

........................................................................
.............................. CYCLE   56 ..............................
........................................................................

[...]
    44   6 C        3.024     0.012    27.713     8.635
    45   6 C        3.018    -0.017    28.413     8.744
    46   6 C        3.969     0.025    20.079     6.367
    47   6 C        3.850    -0.059    21.592     6.609
    48   6 C        3.832    -0.064    21.712     6.630
    49   6 C        3.858    -0.060    21.613     6.612
    50   6 C        3.832    -0.064    21.712     6.630
    51   6 C        2.925    -0.035    28.860     8.810
    52   6 C        2.915    -0.068    29.684     8.934
    53   1 H        0.924     0.045     2.387     2.416
    54   1 H        0.924     0.049     2.328     2.386
    55   1 H        0.925     0.074     2.038     2.232
    56   1 H        0.926     0.060     2.201     2.320
    57   1 H        0.926     0.046     2.364     2.404
    58   1 H        0.926     0.064     2.155     2.296
    59   1 H        0.926     0.060     2.204     2.321
    60   1 H        0.925     0.061     2.192     2.315
    61   1 H        0.926     0.070     2.087     2.259
    62   1 H        0.926     0.083     1.952     2.185
    63   1 H        0.926     0.074     2.043     2.235
    64   1 H        0.924     0.050     2.314     2.379
    65   1 H        0.925     0.061     2.188     2.313
    66   1 H        0.925     0.065     2.136     2.285
    67   1 H        0.925     0.050     2.319     2.381
    68   1 H        0.925     0.050     2.317     2.380
    69   1 H        0.925     0.066     2.130     2.282
    70   1 H        0.925     0.060     2.195     2.317
    71   1 H        0.924     0.058     2.220     2.330
    72   1 H        0.925     0.046     2.371     2.408
    73   1 H        0.925     0.062     2.180     2.309
    74   1 H        0.925     0.062     2.176     2.307
    75   1 H        0.925     0.063     2.168     2.303
    76   1 H        0.925     0.060     2.202     2.321
    77   1 H        0.925     0.057     2.238     2.339
    78   1 H        0.926     0.036     2.505     2.475
    79   1 H        0.926     0.044     2.398     2.422
    80   1 H        0.924     0.050     2.321     2.383
    81   1 H        0.925     0.078     2.001     2.212
    82   1 H        0.924     0.041     2.431     2.438
    83   1 H        0.926     0.052     2.295     2.369
    84   1 H        0.926     0.044     2.391     2.418
    85   1 H        0.926     0.064     2.155     2.296
    86   1 H        0.926     0.062     2.177     2.307
    87   1 H        0.924     0.039     2.462     2.454
    88   1 H        0.925     0.051     2.305     2.374
    89   1 H        0.925     0.058     2.217     2.329
    90   1 H        0.924     0.061     2.190     2.314
    91   1 H        0.924     0.040     2.446     2.446
    92   1 H        0.925     0.052     2.296     2.369
    93   1 H        0.925     0.060     2.201     2.320
    94   1 H        0.924     0.062     2.177     2.307
    95   1 H        0.926     0.038     2.479     2.462
    96   1 H        0.926     0.045     2.388     2.417

 Mol. C6AA /au·bohr⁶  :     121491.026566
 Mol. C8AA /au·bohr⁸  :    3302091.593426
 Mol. α(0) /au        :        551.795804


Wiberg/Mayer (AO) data.
largest (>0.10) Wiberg bond orders for each atom

 ---------------------------------------------------------------------------
     #   Z sym  total        # sym  WBO       # sym  WBO       # sym  WBO
 ---------------------------------------------------------------------------
     1   6 C    3.938 --    55 H    0.978     2 O    0.977    53 H    0.976
                            54 H    0.976
     2   8 O    2.259 --     3 C    1.094     1 C    0.977
     3   6 C    3.932 --    52 C    1.358     4 C    1.326     2 O    1.094
     4   6 C    3.987 --     5 C    1.497     3 C    1.326    56 H    0.966
     5   6 C    3.989 --     4 C    1.497     6 C    1.349    57 H    0.964
     6   6 C    3.986 --    51 C    1.380     5 C    1.349     7 C    1.060
     7   6 C    3.982 --     8 C    1.384    12 C    1.332     6 C    1.060
     8   6 C    3.981 --     9 C    1.439     7 C    1.384    58 H    0.963
                            11 C    0.101
     9   6 C    3.987 --     8 C    1.439    10 C    1.426    59 H    0.966
    10   6 C    3.976 --     9 C    1.426    11 C    1.348    48 C    1.015
    11   6 C    3.980 --    12 C    1.407    10 C    1.348    46 C    0.986
                             8 C    0.101
    12   6 C    3.863 --    11 C    1.407     7 C    1.332    13 O    0.865
    13   8 O    2.406 --    14 P    1.306    12 C    0.865
    14  15 P    5.128 --    31 O    1.309    13 O    1.306    24 N    1.266
                            15 Se   0.947
    15  34 Se   2.509 --    16 S    1.161    14 P    0.947    24 N    0.102
    16  16 S    2.365 --    15 Se   1.161    17 C    0.999
    17   6 C    3.950 --    18 C    1.396    23 C    1.389    16 S    0.999
    18   6 C    3.984 --    19 C    1.434    17 C    1.396    60 H    0.928
    19   6 C    3.988 --    20 C    1.441    18 C    1.434    61 H    0.965
                            23 C    0.107
    20   6 C    3.982 --    19 C    1.441    21 C    1.383    62 H    0.963
    21   6 C    3.893 --    23 C    1.397    20 C    1.383    22 F    0.982
    22   9 F    1.123 --    21 C    0.982
    23   6 C    3.985 --    21 C    1.397    17 C    1.389    63 H    0.962
                            19 C    0.107
    24   7 N    3.413 --    14 P    1.266    25 C    0.939    28 C    0.931
                            15 Se   0.102
    25   6 C    3.953 --    26 C    1.003    27 C    1.003    24 N    0.939
                            64 H    0.937
    26   6 C    3.989 --    25 C    1.003    65 H    0.981    66 H    0.980
                            67 H    0.973
    27   6 C    3.985 --    25 C    1.003    68 H    0.982    70 H    0.977
                            69 H    0.976
    28   6 C    3.951 --    30 C    1.008    29 C    1.002    71 H    0.949
                            24 N    0.931
    29   6 C    3.985 --    28 C    1.002    72 H    0.982    73 H    0.981
                            74 H    0.980
    30   6 C    3.989 --    28 C    1.008    77 H    0.980    75 H    0.979
                            76 H    0.977
    31   8 O    2.422 --    14 P    1.309    32 C    0.880
    32   6 C    3.868 --    45 C    1.405    33 C    1.335    31 O    0.880
    33   6 C    3.983 --    42 C    1.386    32 C    1.335    34 C    1.051
    34   6 C    3.986 --    35 C    1.391    41 C    1.353    33 C    1.051
    35   6 C    3.990 --    36 C    1.447    34 C    1.391    78 H    0.967
                            40 C    0.101
    36   6 C    3.987 --    35 C    1.447    37 C    1.364    79 H    0.965
    37   6 C    3.933 --    36 C    1.364    40 C    1.327    38 O    1.091
    38   8 O    2.257 --    37 C    1.091    39 C    0.976
    39   6 C    3.937 --    81 H    0.978    38 O    0.976    82 H    0.976
                            80 H    0.976
    40   6 C    3.987 --    41 C    1.493    37 C    1.327    83 H    0.967
                            35 C    0.101
    41   6 C    3.990 --    40 C    1.493    34 C    1.353    84 H    0.965
    42   6 C    3.981 --    43 C    1.441    33 C    1.386    85 H    0.965
                            45 C    0.101
    43   6 C    3.988 --    42 C    1.441    44 C    1.425    86 H    0.966
    44   6 C    3.978 --    43 C    1.425    45 C    1.349    50 C    1.017
    45   6 C    3.982 --    32 C    1.405    44 C    1.349    46 C    0.992
                            42 C    0.101
    46   6 C    3.987 --    45 C    0.992    11 C    0.986    47 C    0.960
                            49 C    0.953
    47   6 C    3.993 --    48 C    1.002    87 H    0.979    88 H    0.977
                            46 C    0.960
    48   6 C    3.994 --    10 C    1.015    47 C    1.002    89 H    0.964
                            90 H    0.957
    49   6 C    3.992 --    50 C    1.002    91 H    0.979    92 H    0.977
                            46 C    0.953
    50   6 C    3.994 --    44 C    1.017    49 C    1.002    93 H    0.966
                            94 H    0.955
    51   6 C    3.990 --    52 C    1.455     6 C    1.380    95 H    0.968
    52   6 C    3.987 --    51 C    1.455     3 C    1.358    96 H    0.965
    53   1 H    0.997 --     1 C    0.976
    54   1 H    0.997 --     1 C    0.976
    55   1 H    0.994 --     1 C    0.978
    56   1 H    0.996 --     4 C    0.966
    57   1 H    0.997 --     5 C    0.964
    58   1 H    0.995 --     8 C    0.963
    59   1 H    0.995 --     9 C    0.966
    60   1 H    0.996 --    18 C    0.928
    61   1 H    0.995 --    19 C    0.965
    62   1 H    0.992 --    20 C    0.963
    63   1 H    0.994 --    23 C    0.962
    64   1 H    0.997 --    25 C    0.937
    65   1 H    0.996 --    26 C    0.981
    66   1 H    0.995 --    26 C    0.980
    67   1 H    0.997 --    26 C    0.973
    68   1 H    0.997 --    27 C    0.982
    69   1 H    0.994 --    27 C    0.976
    70   1 H    0.996 --    27 C    0.977
    71   1 H    0.996 --    28 C    0.949
    72   1 H    0.998 --    29 C    0.982
    73   1 H    0.996 --    29 C    0.981
    74   1 H    0.995 --    29 C    0.980
    75   1 H    0.995 --    30 C    0.979
    76   1 H    0.996 --    30 C    0.977
    77   1 H    0.997 --    30 C    0.980
    78   1 H    0.999 --    35 C    0.967
    79   1 H    0.997 --    36 C    0.965
    80   1 H    0.997 --    39 C    0.976
    81   1 H    0.994 --    39 C    0.978
    82   1 H    0.998 --    39 C    0.976
    83   1 H    0.997 --    40 C    0.967
    84   1 H    0.997 --    41 C    0.965
    85   1 H    0.995 --    42 C    0.965
    86   1 H    0.995 --    43 C    0.966
    87   1 H    0.998 --    47 C    0.979
    88   1 H    0.997 --    47 C    0.977
    89   1 H    0.995 --    48 C    0.964
    90   1 H    0.995 --    48 C    0.957
    91   1 H    0.998 --    49 C    0.979
    92   1 H    0.997 --    49 C    0.977
    93   1 H    0.995 --    50 C    0.966
    94   1 H    0.995 --    50 C    0.955
    95   1 H    0.999 --    51 C    0.968
    96   1 H    0.997 --    52 C    0.965
 ---------------------------------------------------------------------------

Topologies differ in total number of bonds
Writing topology from bond orders to xtbtopo.mol

molecular dipole:
                 x           y           z       tot (Debye)
 q only:        0.130      -0.652       0.073
   full:        0.358      -0.998      -0.099       2.706
molecular quadrupole (traceless):
                xx          xy          yy          xz          yz          zz
 q only:       -2.668      -5.930       5.277       0.520      -5.975      -2.609
  q+dip:       -2.258      -4.481       0.999       3.680      -6.819       1.259
   full:       -0.296      -4.357       1.512       4.845      -4.219      -1.216

           -------------------------------------------------
          |                Geometry Summary                 |
           -------------------------------------------------

      molecular mass/u    :      799.8117007
   center of mass at/Å    :       -0.0367856       0.3040924      -0.3359968
  moments of inertia/u·Å² :        0.7130717E+04   0.1153922E+05   0.1460903E+05
rotational constants/cm⁻¹ :        0.2364087E-02   0.1460899E-02   0.1153919E-02

 * 92 selected distances

     #   Z          #   Z                                           value/Å
     1   6 C        2   8 O                                       1.4101016
     2   8 O        3   6 C                                       1.3496912
     3   6 C        4   6 C                                       1.3992676
     4   6 C        5   6 C                                       1.3742964
     5   6 C        6   6 C                                       1.3990830
     7   6 C        8   6 C                                       1.3960741
     8   6 C        9   6 C                                       1.3841572
     9   6 C       10   6 C                                       1.3795898
    10   6 C       11   6 C                                       1.3977094
     7   6 C       12   6 C                                       1.4030398
    11   6 C       12   6 C                                       1.3804989
    13   8 O       14  15 P                                       1.5767718
    14  15 P       15  34 Se                                      2.2249521 (max)
    17   6 C       18   6 C                                       1.3852529
    18   6 C       19   6 C                                       1.3844613
    19   6 C       20   6 C                                       1.3835855
    20   6 C       21   6 C                                       1.3848922
    21   6 C       22   9 F                                       1.3385817
    17   6 C       23   6 C                                       1.3877310
    21   6 C       23   6 C                                       1.3821614
    14  15 P       24   7 N                                       1.6332480
    24   7 N       25   6 C                                       1.4718683
    25   6 C       26   6 C                                       1.5267268
    25   6 C       27   6 C                                       1.5231295
    24   7 N       28   6 C                                       1.4768217
    28   6 C       29   6 C                                       1.5274204
    28   6 C       30   6 C                                       1.5210613
    14  15 P       31   8 O                                       1.5736089
    32   6 C       33   6 C                                       1.3996453
    34   6 C       35   6 C                                       1.3908548
    35   6 C       36   6 C                                       1.3835708
    36   6 C       37   6 C                                       1.3921546
    37   6 C       38   8 O                                       1.3504595
    38   8 O       39   6 C                                       1.4100792
    37   6 C       40   6 C                                       1.3991601
    34   6 C       41   6 C                                       1.3978794
    40   6 C       41   6 C                                       1.3739178
    33   6 C       42   6 C                                       1.3947828
    42   6 C       43   6 C                                       1.3833301
    43   6 C       44   6 C                                       1.3797331
    32   6 C       45   6 C                                       1.3785891
    44   6 C       45   6 C                                       1.3966878
    46   6 C       47   6 C                                       1.5462714
    47   6 C       48   6 C                                       1.5358567
    49   6 C       50   6 C                                       1.5323270
     6   6 C       51   6 C                                       1.3940323
     3   6 C       52   6 C                                       1.3928190
    51   6 C       52   6 C                                       1.3821370
     1   6 C       53   1 H                                       1.0943789
     1   6 C       54   1 H                                       1.0938420
     1   6 C       55   1 H                                       1.0882334
     4   6 C       56   1 H                                       1.0782245
     5   6 C       57   1 H                                       1.0787539
     8   6 C       58   1 H                                       1.0779692
     9   6 C       59   1 H                                       1.0787642
    18   6 C       60   1 H                                       1.0852250
    19   6 C       61   1 H                                       1.0785183
    20   6 C       62   1 H                                       1.0775753
    23   6 C       63   1 H                                       1.0775734 (min)
    25   6 C       64   1 H                                       1.0973789
    26   6 C       65   1 H                                       1.0873276
    26   6 C       66   1 H                                       1.0840291
    26   6 C       67   1 H                                       1.0867853
    27   6 C       68   1 H                                       1.0870204
    27   6 C       69   1 H                                       1.0863255
    27   6 C       70   1 H                                       1.0851348
    28   6 C       71   1 H                                       1.0934449
    29   6 C       72   1 H                                       1.0880995
    29   6 C       73   1 H                                       1.0848611
    29   6 C       74   1 H                                       1.0868055
    30   6 C       75   1 H                                       1.0873378
    30   6 C       76   1 H                                       1.0848532
    30   6 C       77   1 H                                       1.0864759
    35   6 C       78   1 H                                       1.0804977
    36   6 C       79   1 H                                       1.0783252
    39   6 C       80   1 H                                       1.0937585
    39   6 C       81   1 H                                       1.0882535
    39   6 C       82   1 H                                       1.0946446
    40   6 C       83   1 H                                       1.0781838
    41   6 C       84   1 H                                       1.0799005
    42   6 C       85   1 H                                       1.0783983
    43   6 C       86   1 H                                       1.0787041
    47   6 C       87   1 H                                       1.0919622
    47   6 C       88   1 H                                       1.0871377
    48   6 C       89   1 H                                       1.0900962
    48   6 C       90   1 H                                       1.0917236
    49   6 C       91   1 H                                       1.0919194
    49   6 C       92   1 H                                       1.0865848
    50   6 C       93   1 H                                       1.0892751
    50   6 C       94   1 H                                       1.0922993
    51   6 C       95   1 H                                       1.0797321
    52   6 C       96   1 H                                       1.0782008

 * 8 distinct bonds (by element types)

   Z      Z             #   av. dist./Å        max./Å        min./Å
   1 H    6 C          44     1.0855576     1.0973789     1.0775734
   6 C    6 C          37     1.4155105     1.5462714     1.3739178
   6 C    7 N           2     1.4743450     1.4768217     1.4718683
   6 C    8 O           4     1.3800829     1.4101016     1.3496912
   6 C    9 F           1     1.3385817     1.3385817     1.3385817
   7 N   15 P           1     1.6332480     1.6332480     1.6332480
   8 O   15 P           2     1.5751904     1.5767718     1.5736089
  15 P   34 Se          1     2.2249521     2.2249521     2.2249521


optimized geometry written to: xtbopt.xyz


           -------------------------------------------------
          | TOTAL ENERGY             -147.201407973713 Eh   |
          | GRADIENT NORM               0.000090100130 Eh/α |
          | HOMO-LUMO GAP               1.903014552535 eV   |
           -------------------------------------------------

------------------------------------------------------------------------
 * finished run on 2024/12/16 at 21:37:21.690     
------------------------------------------------------------------------
 total:
 * wall-time:     0 d,  0 h,  2 min, 50.454 sec
 *  cpu-time:     0 d,  0 h, 22 min, 16.354 sec
 * ratio c/w:     7.840 speedup
 SCF:
 * wall-time:     0 d,  0 h,  0 min,  2.198 sec
 *  cpu-time:     0 d,  0 h,  0 min, 17.417 sec
 * ratio c/w:     7.923 speedup
 ANC optimizer:
 * wall-time:     0 d,  0 h,  2 min, 48.067 sec
 *  cpu-time:     0 d,  0 h, 21 min, 57.555 sec
 * ratio c/w:     7.839 speedup

