84
 energy: -119.611338982107 gnorm: 0.000029727229 xtb: 6.7.1 (edcfbbe)
C            6.29769826778433        3.52378021992292       -0.01596013887902
O            6.20942841390140        2.26723018332004        0.61944116145361
C            5.00043485075423        1.78587339355317        0.96494162449348
C            5.00301721062489        0.56159254401001        1.63846123822925
C            3.83176212810816       -0.04076621047811        2.05063134684072
C            3.88905577340492       -1.33283909791069        2.80166306980129
C            2.61979226864472        0.59045443281493        1.74114380372472
S            1.07468900179828       -0.12953580915641        2.26009564985161
S            1.05340028626000       -1.96984988010389        1.34185641858347
P           -0.27551146640129       -1.78632400819927       -0.32251064989813
N           -0.19118515376170       -3.01995332119663       -1.42605191380046
C           -0.66086643974698       -2.63999886815869       -2.75747418687440
C            0.58593121538983       -4.27291744840590       -1.26889816965885
C            0.21392866841464       -4.90317700180667        0.07080388603520
C            2.08215685941348       -3.96515190597415       -1.33814763492784
C            0.22468785221365       -5.26727173037431       -2.37414796933852
N           -1.85380722388983       -1.65997220773259        0.15298073429622
C           -2.78224832047586       -2.77710623766833        0.16077279500178
C           -2.02063108138851       -0.63767940929551        1.14465308639738
C           -2.11534708848732       -0.96373827814950        2.50783797963424
C           -2.21928881329612        0.03081668512971        3.43626447163820
C           -2.19387045496197        1.38661184641144        3.04748221152127
C           -2.24862309980789        2.42279524288246        4.00269010671532
C           -2.19425640672788        3.73277096339756        3.61766710722217
C           -2.07233019805671        4.06145117288092        2.25921959726108
C           -2.02358672262741        3.08130403252266        1.30732918784067
C           -2.09833983769593        1.71929694552939        1.66999724316327
C           -2.04423808622637        0.66824676494253        0.71135532535947
C           -2.01450336928955        0.95082440835215       -0.73609652046219
C           -0.96688122518312        0.51763310699506       -1.52430250915781
C           -0.88892045694106        0.89654905625706       -2.87881721065305
C           -1.86551048600109        1.66563167024409       -3.44114675983197
C           -2.99806090137104        2.05286982046905       -2.69745497958564
C           -4.04753843292280        2.79184256203316       -3.28151994591786
C           -5.15404199989231        3.12651998878412       -2.55318511667875
C           -5.26058129362291        2.72261800845472       -1.21384227983498
C           -4.25407175754840        2.01641757034260       -0.61575802330732
C           -3.08482028062411        1.67837999430086       -1.33122136887671
N            0.06808489948216       -0.29065758024152       -0.96416296334980
C            1.42842086987400       -0.11226383152678       -1.45982888225604
C            2.58807668010614        1.82876263672219        1.09763914496018
C            1.30078492154105        2.55538835922559        0.86432664731457
C            3.78410444151887        2.41498706039757        0.71266938208597
H            5.78822973664810        3.51948452194867       -0.98423007810872
H            7.36053515021712        3.69942955924265       -0.16954700095609
H            5.88684052092906        4.31889387745502        0.61265585376886
H            5.95510670884363        0.10172049453487        1.84875151900487
H            3.75587853491971       -2.17982736429490        2.12793413761900
H            4.85523281988448       -1.43928661192013        3.28609708992058
H            3.10825969625248       -1.38086415945942        3.55811003658265
H            0.16304520448320       -2.52161915556390       -3.46485206594187
H           -1.21232347191915       -1.70186708872212       -2.69375582929159
H           -1.34547973564914       -3.39264511925301       -3.14548515286064
H            0.36785571541850       -4.20521172657767        0.89086512049930
H           -0.82662316176830       -5.21853871920305        0.06632061518817
H            0.83537520246140       -5.77503373809105        0.25418616979829
H            2.38330651047594       -3.33865107151898       -0.50216262480535
H            2.32300585732263       -3.45450512901246       -2.26804932190728
H            2.65638490312178       -4.88609454814985       -1.29907792291951
H            0.73978408536146       -6.20264799745495       -2.17370435247431
H            0.53764619717135       -4.92072168785761       -3.35432282514200
H           -0.84224956592436       -5.47389205067659       -2.38874992692988
H           -2.78121945077461       -3.32694920827816        1.10356732203281
H           -3.78434799424446       -2.38419421155297       -0.01432816350073
H           -2.52062031732103       -3.45613244794851       -0.64739338999514
H           -2.09523272258605       -1.99974779916881        2.81075687080294
H           -2.29863677891190       -0.20943210881457        4.48522445027935
H           -2.32924091847744        2.15779819559566        5.04624237949992
H           -2.23724601000324        4.52080211394881        4.35362325181671
H           -2.01425129317481        5.09911898511444        1.96782449477955
H           -1.92049658164171        3.34522298680640        0.26607695653252
H           -0.04736932767818        0.58051688235801       -3.47445025278195
H           -1.79079091361632        1.96592179161182       -4.47518335652970
H           -3.96093738935986        3.07911309124420       -4.31881667864722
H           -5.95541087497730        3.69099506217943       -3.00415185635010
H           -6.14986958526950        2.97055454355854       -0.65487034988267
H           -4.35413197135484        1.70200329030185        0.41162632714131
H            1.63677999856618        0.95201527753983       -1.55287152034619
H            1.59701281074600       -0.59445883365322       -2.42578288409624
H            2.13117026255219       -0.53907067889575       -0.74278356081064
H            1.41900144016997        3.31903347088551        0.09996674539494
H            0.98326382359619        3.04526837901886        1.78510116337014
H            0.50538663370014        1.87534594505636        0.57195155124166
H            3.75098723958899        3.37670614439188        0.22629306280212
