      -----------------------------------------------------------      
     |                   =====================                   |     
     |                           x T B                           |     
     |                   =====================                   |     
     |                         S. Grimme                         |     
     |          Mulliken Center for Theoretical Chemistry        |     
     |                    University of Bonn                     |     
      -----------------------------------------------------------      

   * xtb version 6.7.1 (edcfbbe) compiled by 'conda@3ef47c1a292c' on 2024-11-25

   xtb is free software: you can redistribute it and/or modify it under
   the terms of the GNU Lesser General Public License as published by
   the Free Software Foundation, either version 3 of the License, or
   (at your option) any later version.
   
   xtb is distributed in the hope that it will be useful,
   but WITHOUT ANY WARRANTY; without even the implied warranty of
   MERCHANTABILITY or FITNESS FOR A PARTICULAR PURPOSE.  See the
   GNU Lesser General Public License for more details.
   
   Cite this work as:
   * C. Bannwarth, E. Caldeweyher, S. Ehlert, A. Hansen, P. Pracht,
     J. Seibert, S. Spicher, S. Grimme, WIREs Comput. Mol. Sci., 2020, 11,
     e01493. DOI: 10.1002/wcms.1493
   
   for GFN2-xTB:
   * C. Bannwarth, S. Ehlert and S. Grimme., J. Chem. Theory Comput., 2019,
     15, 1652-1671. DOI: 10.1021/acs.jctc.8b01176
   for GFN1-xTB:
   * S. Grimme, C. Bannwarth, P. Shushkov, J. Chem. Theory Comput., 2017,
     13, 1989-2009. DOI: 10.1021/acs.jctc.7b00118
   for GFN0-xTB:
   * P. Pracht, E. Caldeweyher, S. Ehlert, S. Grimme, ChemRxiv, 2019, preprint.
     DOI: 10.26434/chemrxiv.8326202.v1
   for GFN-FF:
   * S. Spicher and S. Grimme, Angew. Chem. Int. Ed., 2020, 59, 15665-15673.
     DOI: 10.1002/anie.202004239
   
   for ALPB and GBSA implicit solvation:
   * S. Ehlert, M. Stahn, S. Spicher, S. Grimme, J. Chem. Theory Comput.,
     2021, 17, 4250-4261. DOI: 10.1021/acs.jctc.1c00471
   
   for ddCOSMO and CPCM-X implicit solvation:
   * M. Stahn, S. Ehlert, S. Grimme, J. Phys. Chem. A,
     2023, XX, XXXX-XXXX. DOI: 10.1021/acs.jpca.3c04382
   
   for DFT-D4:
   * E. Caldeweyher, C. Bannwarth and S. Grimme, J. Chem. Phys., 2017,
     147, 034112. DOI: 10.1063/1.4993215
   * E. Caldeweyher, S. Ehlert, A. Hansen, H. Neugebauer, S. Spicher,
     C. Bannwarth and S. Grimme, J. Chem. Phys., 2019, 150, 154122.
     DOI: 10.1063/1.5090222
   * E. Caldeweyher, J.-M. Mewes, S. Ehlert and S. Grimme, Phys. Chem. Chem. Phys.
     2020, 22, 8499-8512. DOI: 10.1039/D0CP00502A
   
   for sTDA-xTB:
   * S. Grimme and C. Bannwarth, J. Chem. Phys., 2016, 145, 054103.
     DOI: 10.1063/1.4959605
   
   in the mass-spec context:
   * V. Asgeirsson, C. Bauer and S. Grimme, Chem. Sci., 2017, 8, 4879.
     DOI: 10.1039/c7sc00601b
   * J. Koopman and S. Grimme, ACS Omega 2019, 4, 12, 15120-15133.
     DOI: 10.1021/acsomega.9b02011
   
   for metadynamics refer to:
   * S. Grimme, J. Chem. Theory Comput., 2019, 155, 2847-2862
     DOI: 10.1021/acs.jctc.9b00143
   
   for SPH calculations refer to:
   * S. Spicher and S. Grimme, J. Chem. Theory Comput., 2021, 17, 1701-1714
     DOI: 10.1021/acs.jctc.0c01306
   
   for ONIOM refer to:
   * C. Plett, A. Katbashev, S. Ehlert, S. Grimme, M. Bursch,
     Phys. Chem. Chem. Phys., 2023, 25, 17860-17868. DOI: 10.1039/D3CP02178E
   
   for DIPRO refer to:
   * J. Kohn, N. Gildemeister, S. Grimme, D. Fazzi, A. Hansen,
     J. Chem. Phys., 2023, just accepted.
   
   for PTB refer to:
   * S. Grimme, M. Mueller, A. Hansen, J. Chem. Phys., 2023, 158, 124111.
     DOI: 10.1063/5.0137838
   
   with help from (in alphabetical order)
   P. Atkinson, C. Bannwarth, F. Bohle, G. Brandenburg, E. Caldeweyher
   M. Checinski, S. Dohm, S. Ehlert, S. Ehrlich, I. Gerasimov, C. Hölzer
   A. Katbashev, J. Kohn, J. Koopman, C. Lavigne, S. Lehtola, F. März, M. Müller,
   F. Musil, H. Neugebauer, J. Pisarek, C. Plett, P. Pracht, F. Pultar,
   J. Seibert, P. Shushkov, S. Spicher, M. Stahn, M. Steiner, T. Strunk,
   J. Stückrath, T. Rose, and J. Unsleber
   
 * started run on 2024/12/16 at 17:26:00.038     
   ID    Z sym.   atoms
    1    6 C      1-7, 12-17, 19-39, 41
    2   16 S      8
    3   34 Se     9
    4   15 P      10
    5    7 N      11, 18, 40
    6    1 H      42-80

           -------------------------------------------------
          |                Calculation Setup                |
           -------------------------------------------------

          program call               : xtb --gfn2 --opt extreme -P 8 --charge 1 molecule.xyz
          hostname                   : node05
          coordinate file            : molecule.xyz
          omp threads                :                     8


           -------------------------------------------------
          |                 G F N 2 - x T B                 |
           -------------------------------------------------

        Reference                      10.1021/acs.jctc.8b01176
      * Hamiltonian:
        H0-scaling (s, p, d)           1.850000    2.230000    2.230000
        zeta-weighting                 0.500000
      * Dispersion:
        s8                             2.700000
        a1                             0.520000
        a2                             5.000000
        s9                             5.000000
      * Repulsion:
        kExp                           1.500000    1.000000
        rExp                           1.000000
      * Coulomb:
        alpha                          2.000000
        third order                    shell-resolved
        anisotropic                    true
        a3                             3.000000
        a5                             4.000000
        cn-shift                       1.200000
        cn-exp                         4.000000
        max-rad                        5.000000


          ...................................................
          :                      SETUP                      :
          :.................................................:
          :  # basis functions                 221          :
          :  # atomic orbitals                 218          :
          :  # shells                          124          :
          :  # electrons                       210          :
          :  max. iterations                   250          :
          :  Hamiltonian                  GFN2-xTB          :
          :  restarted?                      false          :
          :  GBSA solvation                  false          :
          :  PC potential                    false          :
          :  electronic temp.          300.0000000     K    :
          :  accuracy                    1.0000000          :
          :  -> integral cutoff          0.2500000E+02      :
          :  -> integral neglect         0.1000000E-07      :
          :  -> SCF convergence          0.1000000E-05 Eh   :
          :  -> wf. convergence          0.1000000E-03 e    :
          :  Broyden damping             0.4000000          :
          :  net charge                          1          :
          :  unpaired electrons                  0          :
          ...................................................

 iter      E             dE          RMSdq      gap      omega  full diag
   1   -113.7700914 -0.113770E+03  0.462E+00    1.95       0.0  T
   2   -113.9321070 -0.162016E+00  0.273E+00    2.63       1.0  T
   3   -113.9363828 -0.427576E-02  0.128E+00    2.62       1.0  T
   4   -113.9373872 -0.100441E-02  0.629E-01    2.57       1.0  T
   5   -113.9506693 -0.132821E-01  0.346E-01    2.63       1.0  T
   6   -113.9576223 -0.695295E-02  0.133E-01    2.61       1.0  T
   7   -113.9585718 -0.949594E-03  0.659E-02    2.60       1.0  T
   8   -113.9586884 -0.116580E-03  0.396E-02    2.61       1.0  T
   9   -113.9587002 -0.117728E-04  0.272E-02    2.61       1.0  T
  10   -113.9587047 -0.454789E-05  0.133E-02    2.61       1.0  T
  11   -113.9587065 -0.175052E-05  0.881E-03    2.61       1.3  T
  12   -113.9587073 -0.840356E-06  0.383E-03    2.61       2.9  T
  13   -113.9587077 -0.316695E-06  0.146E-03    2.61       7.6  T
  14   -113.9587077 -0.404725E-08  0.624E-04    2.61      17.9  T
  15   -113.9587077 -0.107429E-07  0.288E-04    2.61      38.9  T

   *** convergence criteria satisfied after 15 iterations ***

         #    Occupation            Energy/Eh            Energy/eV
      -------------------------------------------------------------
         1        2.0000           -0.9137985             -24.8657
       ...           ...                  ...                  ...
        99        2.0000           -0.4968023             -13.5187
       100        2.0000           -0.4938603             -13.4386
       101        2.0000           -0.4895344             -13.3209
       102        2.0000           -0.4848743             -13.1941
       103        2.0000           -0.4771786             -12.9847
       104        2.0000           -0.4583711             -12.4729
       105        2.0000           -0.4569480             -12.4342 (HOMO)
       106                         -0.3611960              -9.8286 (LUMO)
       107                         -0.3516795              -9.5697
       108                         -0.3487415              -9.4897
       109                         -0.3259934              -8.8707
       110                         -0.3249768              -8.8431
       ...                                ...                  ...
       218                          3.0408788              82.7465
      -------------------------------------------------------------
                  HL-Gap            0.0957520 Eh            2.6055 eV
             Fermi-level           -0.4090720 Eh          -11.1314 eV

 SCC (total)                   0 d,  0 h,  0 min,  1.682 sec
 SCC setup                      ...        0 min,  0.000 sec (  0.021%)
 Dispersion                     ...        0 min,  0.002 sec (  0.096%)
 classical contributions        ...        0 min,  0.000 sec (  0.006%)
 integral evaluation            ...        0 min,  0.006 sec (  0.369%)
 iterations                     ...        0 min,  1.537 sec ( 91.358%)
 molecular gradient             ...        0 min,  0.119 sec (  7.101%)
 printout                       ...        0 min,  0.018 sec (  1.047%)

         :::::::::::::::::::::::::::::::::::::::::::::::::::::
         ::                     SUMMARY                     ::
         :::::::::::::::::::::::::::::::::::::::::::::::::::::
         :: total energy            -112.032150628592 Eh    ::
         :: gradient norm              0.594550690434 Eh/a0 ::
         :: HOMO-LUMO gap              2.605545058763 eV    ::
         ::.................................................::
         :: SCC energy              -113.954288384738 Eh    ::
         :: -> isotropic ES            0.075568847759 Eh    ::
         :: -> anisotropic ES          0.003718311161 Eh    ::
         :: -> anisotropic XC          0.064498127131 Eh    ::
         :: -> dispersion             -0.123152333096 Eh    ::
         :: repulsion energy           1.922137756146 Eh    ::
         :: add. restraining           0.000000000000 Eh    ::
         :: total charge               1.000000000000 e     ::
         :::::::::::::::::::::::::::::::::::::::::::::::::::::

      ----------------------------------------------------------- 
     |                   =====================                   |
     |                        A N C O P T                        |
     |                   =====================                   |
     |               Approximate Normal Coordinate               |
     |                Rational Function Optimizer                |
      ----------------------------------------------------------- 
      ----------------------------------------------------------- 
     |                   =====================                   |
     |                        A N C O P T                        |
     |                   =====================                   |
     |               Approximate Normal Coordinate               |
     |                Rational Function Optimizer                |
      ----------------------------------------------------------- 

          ...................................................
          :                      SETUP                      :
          :.................................................:
          :   optimization level           extreme          :
          :   max. optcycles                  1600          :
          :   ANC micro-cycles                  20          :
          :   degrees of freedom               234          :
          :.................................................:
          :   RF solver                   davidson          :
          :   write xtbopt.log                true          :
          :   linear?                        false          :
          :   energy convergence         0.5000000E-07 Eh   :
          :   grad. convergence          0.5000000E-04 Eh/α :
          :   maxmium RF displ.          1.0000000          :
          :   Hlow (freq-cutoff)         0.1000000E-01      :
          :   Hmax (freq-cutoff)         5.0000000          :
          :   S6 in model hess.         20.0000000          :
          ...................................................

generating ANC from exact Hessian ...
Using Lindh-Hessian (1995)
 Shifting diagonal of input Hessian by    9.9098410539926081E-003
 Lowest  eigenvalues of input Hessian
    0.000000    0.000000    0.000000    0.000000    0.000000    0.000000
    0.010000    0.010064    0.010114    0.010193    0.010279    0.010483
    0.010859    0.011212    0.011432    0.011546    0.011788    0.011852
 Highest eigenvalues
    2.049111    2.068579    2.127467    2.151764    2.238669    2.259838


........................................................................
.............................. CYCLE    1 ..............................
........................................................................

 iter      E             dE          RMSdq      gap      omega  full diag
   1   -113.9587077 -0.113959E+03  0.136E-04    2.61       0.0  T
   2   -113.9587077 -0.168058E-09  0.924E-05    2.61     121.0  T
   3   -113.9587077 -0.266027E-09  0.578E-05    2.61     193.6  T
     SCC iter.                  ...        0 min,  0.249 sec
     gradient                   ...        0 min,  0.113 sec
 * total energy  :  -112.0321506 Eh     change       -0.1463420E-08 Eh
   gradient norm :     0.5945495 Eh/α   predicted     0.0000000E+00 (-100.00%)
   displ. norm   :     0.5659412 α      lambda       -0.3107355E+00
   maximum displ.:     0.2254568 α      in ANC's #188, #163, #186, ...

........................................................................
.............................. CYCLE    2 ..............................
........................................................................

 iter      E             dE          RMSdq      gap      omega  full diag
   1   -114.0517312 -0.114052E+03  0.101E+00    2.52       0.0  T
   2   -114.0545042 -0.277291E-02  0.516E-01    2.65       1.0  T
   3   -114.0544431  0.610641E-04  0.211E-01    2.65       1.0  T
   4   -114.0542826  0.160470E-03  0.122E-01    2.65       1.0  T
   5   -114.0549145 -0.631863E-03  0.552E-02    2.65       1.0  T
   6   -114.0550494 -0.134886E-03  0.329E-02    2.65       1.0  T
   7   -114.0550730 -0.236700E-04  0.154E-02    2.65       1.0  T
   8   -114.0550804 -0.739958E-05  0.937E-03    2.65       1.2  T
   9   -114.0550810 -0.565042E-06  0.595E-03    2.65       1.9  T
  10   -114.0550813 -0.311479E-06  0.277E-03    2.65       4.0  T
  11   -114.0550814 -0.934521E-07  0.149E-03    2.65       7.5  T
  12   -114.0550814 -0.326377E-07  0.739E-04    2.65      15.1  T
  13   -114.0550815 -0.112038E-07  0.314E-04    2.65      35.6  T
     SCC iter.                  ...        0 min,  1.363 sec
     gradient                   ...        0 min,  0.166 sec
 * total energy  :  -112.1977706 Eh     change       -0.1656200E+00 Eh
   gradient norm :     0.1606635 Eh/α   predicted    -0.2051324E+00 (  23.86%)
   displ. norm   :     0.5957387 α      lambda       -0.6446157E-01
   maximum displ.:     0.1571703 α      in ANC's #50, #39, #88, ...

........................................................................
.............................. CYCLE    3 ..............................
........................................................................

 iter      E             dE          RMSdq      gap      omega  full diag
   1   -114.0929862 -0.114093E+03  0.385E-01    2.61       0.0  T
   2   -114.0932854 -0.299181E-03  0.234E-01    2.61       1.0  T
   3   -114.0927902  0.495247E-03  0.108E-01    2.62       1.0  T
   4   -114.0932804 -0.490229E-03  0.608E-02    2.61       1.0  T
   5   -114.0934272 -0.146835E-03  0.364E-02    2.62       1.0  T
   6   -114.0934636 -0.363591E-04  0.191E-02    2.61       1.0  T
   7   -114.0934659 -0.226856E-05  0.121E-02    2.61       1.0  T
   8   -114.0934675 -0.166812E-05  0.624E-03    2.61       1.8  T
   9   -114.0934682 -0.615716E-06  0.331E-03    2.61       3.4  T
  10   -114.0934682 -0.623188E-07  0.159E-03    2.61       7.0  T
  11   -114.0934683 -0.671551E-07  0.814E-04    2.61      13.7  T
  12   -114.0934683 -0.579708E-08  0.428E-04    2.61      26.1  T
     SCC iter.                  ...        0 min,  1.204 sec
     gradient                   ...        0 min,  0.143 sec
 * total energy  :  -112.2457097 Eh     change       -0.4793904E-01 Eh
   gradient norm :     0.0712618 Eh/α   predicted    -0.4368515E-01 (  -8.87%)
   displ. norm   :     0.6002837 α      lambda       -0.3005695E-01
   maximum displ.:     0.1701087 α      in ANC's #41, #39, #23, ...

........................................................................
.............................. CYCLE    4 ..............................
........................................................................

 iter      E             dE          RMSdq      gap      omega  full diag
   1   -114.0978078 -0.114098E+03  0.359E-01    2.52       0.0  T
   2   -114.0979832 -0.175382E-03  0.201E-01    2.54       1.0  T
   3   -114.0977782  0.205031E-03  0.730E-02    2.55       1.0  T
   4   -114.0979784 -0.200289E-03  0.405E-02    2.55       1.0  T
   5   -114.0980335 -0.551065E-04  0.247E-02    2.55       1.0  T
   6   -114.0980547 -0.211285E-04  0.137E-02    2.55       1.0  T
   7   -114.0980557 -0.999993E-06  0.888E-03    2.55       1.3  T
   8   -114.0980569 -0.122174E-05  0.382E-03    2.55       2.9  T
   9   -114.0980570 -0.150103E-06  0.218E-03    2.55       5.1  T
  10   -114.0980571 -0.391866E-07  0.111E-03    2.55      10.1  T
  11   -114.0980571 -0.210139E-07  0.659E-04    2.55      17.0  T
  12   -114.0980571 -0.527871E-08  0.289E-04    2.55      38.7  T
     SCC iter.                  ...        0 min,  1.799 sec
     gradient                   ...        0 min,  0.114 sec
 * total energy  :  -112.2671820 Eh     change       -0.2147234E-01 Eh
   gradient norm :     0.0290812 Eh/α   predicted    -0.2044385E-01 (  -4.79%)
   displ. norm   :     0.5914505 α      lambda       -0.1228213E-01
   maximum displ.:     0.1766963 α      in ANC's #23, #24, #41, ...

........................................................................
.............................. CYCLE    5 ..............................
........................................................................

 iter      E             dE          RMSdq      gap      omega  full diag
   1   -114.0923105 -0.114092E+03  0.249E-01    2.46       0.0  T
   2   -114.0923784 -0.679396E-04  0.139E-01    2.46       1.0  T
   3   -114.0922926  0.858320E-04  0.481E-02    2.47       1.0  T
   4   -114.0923494 -0.567889E-04  0.259E-02    2.46       1.0  T
   5   -114.0924002 -0.507609E-04  0.121E-02    2.46       1.0  T
   6   -114.0924036 -0.343733E-05  0.748E-03    2.46       1.5  T
   7   -114.0924045 -0.899313E-06  0.495E-03    2.46       2.3  T
   8   -114.0924047 -0.171668E-06  0.273E-03    2.46       4.1  T
   9   -114.0924048 -0.116764E-06  0.114E-03    2.46       9.8  T
  10   -114.0924048 -0.240871E-07  0.555E-04    2.46      20.1  T
  11   -114.0924048 -0.582764E-08  0.269E-04    2.46      41.6  T
     SCC iter.                  ...        0 min,  1.415 sec
     gradient                   ...        0 min,  0.165 sec
 * total energy  :  -112.2761101 Eh     change       -0.8928050E-02 Eh
   gradient norm :     0.0192508 Eh/α   predicted    -0.8289300E-02 (  -7.15%)
   displ. norm   :     0.5890901 α      lambda       -0.6049701E-02
   maximum displ.:     0.1751906 α      in ANC's #24, #5, #8, ...

........................................................................
.............................. CYCLE    6 ..............................
........................................................................

 iter      E             dE          RMSdq      gap      omega  full diag
   1   -114.0930978 -0.114093E+03  0.165E-01    2.41       0.0  T
   2   -114.0931164 -0.186176E-04  0.921E-02    2.40       1.0  T
   3   -114.0930550  0.613705E-04  0.317E-02    2.41       1.0  T
   4   -114.0931148 -0.597531E-04  0.130E-02    2.40       1.0  T
   5   -114.0931268 -0.120376E-04  0.598E-03    2.40       1.9  T
   6   -114.0931276 -0.756874E-06  0.364E-03    2.40       3.1  T
   7   -114.0931278 -0.254155E-06  0.238E-03    2.40       4.7  T
   8   -114.0931279 -0.293270E-07  0.138E-03    2.40       8.1  T
   9   -114.0931279 -0.251752E-07  0.608E-04    2.40      18.4  T
  10   -114.0931279 -0.941658E-08  0.261E-04    2.40      42.8  T
     SCC iter.                  ...        0 min,  1.114 sec
     gradient                   ...        0 min,  0.113 sec
 * total energy  :  -112.2808246 Eh     change       -0.4714532E-02 Eh
   gradient norm :     0.0153709 Eh/α   predicted    -0.4074562E-02 ( -13.57%)
   displ. norm   :     0.6519996 α      lambda       -0.4413974E-02
   maximum displ.:     0.2214719 α      in ANC's #5, #24, #8, ...

........................................................................
.............................. CYCLE    7 ..............................
........................................................................

 iter      E             dE          RMSdq      gap      omega  full diag
   1   -114.0981017 -0.114098E+03  0.134E-01    2.38       0.0  T
   2   -114.0981103 -0.861534E-05  0.751E-02    2.37       1.0  T
   3   -114.0980800  0.302674E-04  0.227E-02    2.37       1.0  T
   4   -114.0981049 -0.248345E-04  0.106E-02    2.36       1.1  T
   5   -114.0981151 -0.102251E-04  0.318E-03    2.37       3.5  T
   6   -114.0981155 -0.416576E-06  0.165E-03    2.37       6.8  T
   7   -114.0981156 -0.955520E-07  0.726E-04    2.37      15.4  T
   8   -114.0981156 -0.570883E-08  0.490E-04    2.37      22.8  T
     SCC iter.                  ...        0 min,  1.122 sec
     gradient                   ...        0 min,  0.189 sec
 * total energy  :  -112.2844408 Eh     change       -0.3616209E-02 Eh
   gradient norm :     0.0123464 Eh/α   predicted    -0.3145186E-02 ( -13.03%)
   displ. norm   :     0.6982007 α      lambda       -0.3609396E-02
   maximum displ.:     0.2684159 α      in ANC's #5, #8, #14, ...

........................................................................
.............................. CYCLE    8 ..............................
........................................................................

 iter      E             dE          RMSdq      gap      omega  full diag
   1   -114.1045556 -0.114105E+03  0.138E-01    2.35       0.0  T
   2   -114.1045626 -0.701663E-05  0.762E-02    2.35       1.0  T
   3   -114.1045457  0.169391E-04  0.186E-02    2.35       1.0  T
   4   -114.1045614 -0.157101E-04  0.896E-03    2.35       1.2  T
   5   -114.1045649 -0.346874E-05  0.399E-03    2.35       2.8  T
   6   -114.1045660 -0.111447E-05  0.122E-03    2.35       9.2  T
   7   -114.1045660 -0.372055E-07  0.691E-04    2.35      16.2  T
   8   -114.1045660 -0.151668E-08  0.385E-04    2.35      29.1  T
     SCC iter.                  ...        0 min,  1.050 sec
     gradient                   ...        0 min,  0.113 sec
 * total energy  :  -112.2874484 Eh     change       -0.3007623E-02 Eh
   gradient norm :     0.0110307 Eh/α   predicted    -0.2684460E-02 ( -10.74%)
   displ. norm   :     0.7125428 α      lambda       -0.2892773E-02
   maximum displ.:     0.3015071 α      in ANC's #5, #8, #14, ...

........................................................................
.............................. CYCLE    9 ..............................
........................................................................

 iter      E             dE          RMSdq      gap      omega  full diag
   1   -114.1102524 -0.114110E+03  0.136E-01    2.33       0.0  T
   2   -114.1102603 -0.796926E-05  0.764E-02    2.33       1.0  T
   3   -114.1102514  0.891956E-05  0.176E-02    2.33       1.0  T
   4   -114.1102598 -0.841253E-05  0.856E-03    2.33       1.3  T
   5   -114.1102615 -0.165446E-05  0.511E-03    2.33       2.2  T
   6   -114.1102632 -0.171972E-05  0.215E-03    2.33       5.2  T
   7   -114.1102633 -0.622894E-07  0.160E-03    2.33       7.0  T
   8   -114.1102633 -0.706640E-08  0.862E-04    2.33      13.0  T
   9   -114.1102633 -0.166255E-07  0.339E-04    2.33      33.0  T
     SCC iter.                  ...        0 min,  1.061 sec
     gradient                   ...        0 min,  0.112 sec
 * total energy  :  -112.2898586 Eh     change       -0.2410168E-02 Eh
   gradient norm :     0.0105574 Eh/α   predicted    -0.2180742E-02 (  -9.52%)
   displ. norm   :     0.7102946 α      lambda       -0.2270998E-02
   maximum displ.:     0.3268799 α      in ANC's #5, #8, #14, ...

........................................................................
.............................. CYCLE   10 ..............................
........................................................................

 iter      E             dE          RMSdq      gap      omega  full diag
   1   -114.1139220 -0.114114E+03  0.135E-01    2.31       0.0  T
   2   -114.1139314 -0.937743E-05  0.743E-02    2.31       1.0  T
   3   -114.1139256  0.574114E-05  0.174E-02    2.31       1.0  T
   4   -114.1139306 -0.501107E-05  0.861E-03    2.31       1.3  T
   5   -114.1139325 -0.184513E-05  0.498E-03    2.31       2.2  T
   6   -114.1139341 -0.161885E-05  0.229E-03    2.31       4.9  T
   7   -114.1139342 -0.113713E-06  0.157E-03    2.31       7.1  T
   8   -114.1139342 -0.473776E-09  0.992E-04    2.31      11.3  T
   9   -114.1139342 -0.204661E-07  0.355E-04    2.31      31.5  T
     SCC iter.                  ...        0 min,  1.074 sec
     gradient                   ...        0 min,  0.119 sec
 * total energy  :  -112.2917640 Eh     change       -0.1905378E-02 Eh
   gradient norm :     0.0098253 Eh/α   predicted    -0.1708382E-02 ( -10.34%)
   displ. norm   :     0.7011055 α      lambda       -0.1873833E-02
   maximum displ.:     0.3389317 α      in ANC's #5, #8, #14, ...

........................................................................
.............................. CYCLE   11 ..............................
........................................................................

 iter      E             dE          RMSdq      gap      omega  full diag
   1   -114.1167720 -0.114117E+03  0.131E-01    2.28       0.0  T
   2   -114.1167815 -0.944708E-05  0.721E-02    2.28       1.0  T
   3   -114.1167776  0.385547E-05  0.163E-02    2.28       1.0  T
   4   -114.1167809 -0.330370E-05  0.802E-03    2.28       1.4  T
   5   -114.1167825 -0.161429E-05  0.442E-03    2.28       2.5  T
   6   -114.1167839 -0.138911E-05  0.215E-03    2.28       5.2  T
   7   -114.1167840 -0.845990E-07  0.151E-03    2.28       7.4  T
   8   -114.1167840 -0.705782E-08  0.891E-04    2.28      12.5  T
   9   -114.1167840 -0.113619E-07  0.360E-04    2.28      31.0  T
     SCC iter.                  ...        0 min,  0.894 sec
     gradient                   ...        0 min,  0.113 sec
 * total energy  :  -112.2933577 Eh     change       -0.1593701E-02 Eh
   gradient norm :     0.0085790 Eh/α   predicted    -0.1397463E-02 ( -12.31%)
   displ. norm   :     0.7026570 α      lambda       -0.1658063E-02
   maximum displ.:     0.3485289 α      in ANC's #5, #8, #14, ...

........................................................................
.............................. CYCLE   12 ..............................
........................................................................

 iter      E             dE          RMSdq      gap      omega  full diag
   1   -114.1183017 -0.114118E+03  0.137E-01    2.26       0.0  T
   2   -114.1183114 -0.971916E-05  0.749E-02    2.26       1.0  T
   3   -114.1183085  0.290240E-05  0.156E-02    2.26       1.0  T
   4   -114.1183104 -0.183287E-05  0.775E-03    2.26       1.4  T
   5   -114.1183128 -0.246486E-05  0.343E-03    2.26       3.3  T
   6   -114.1183137 -0.831582E-06  0.165E-03    2.26       6.8  T
   7   -114.1183137 -0.709647E-07  0.110E-03    2.26      10.2  T
   8   -114.1183137 -0.740773E-08  0.729E-04    2.26      15.3  T
   9   -114.1183137 -0.265760E-08  0.334E-04    2.26      33.5  T
     SCC iter.                  ...        0 min,  1.181 sec
     gradient                   ...        0 min,  0.144 sec
 * total energy  :  -112.2947674 Eh     change       -0.1409728E-02 Eh
   gradient norm :     0.0074052 Eh/α   predicted    -0.1238347E-02 ( -12.16%)
   displ. norm   :     0.7026923 α      lambda       -0.1455603E-02
   maximum displ.:     0.3485361 α      in ANC's #5, #8, #14, ...

........................................................................
.............................. CYCLE   13 ..............................
........................................................................

 iter      E             dE          RMSdq      gap      omega  full diag
   1   -114.1200968 -0.114120E+03  0.146E-01    2.24       0.0  T
   2   -114.1201055 -0.878336E-05  0.807E-02    2.24       1.0  T
   3   -114.1201020  0.349266E-05  0.149E-02    2.25       1.0  T
   4   -114.1201040 -0.197566E-05  0.795E-03    2.24       1.4  T
   5   -114.1201076 -0.354792E-05  0.229E-03    2.24       4.9  T
   6   -114.1201078 -0.241187E-06  0.103E-03    2.24      10.9  T
   7   -114.1201078 -0.217242E-07  0.670E-04    2.24      16.7  T
   8   -114.1201078 -0.108150E-07  0.413E-04    2.24      27.1  T
     SCC iter.                  ...        0 min,  1.118 sec
     gradient                   ...        0 min,  0.169 sec
 * total energy  :  -112.2959658 Eh     change       -0.1198353E-02 Eh
   gradient norm :     0.0079833 Eh/α   predicted    -0.1087173E-02 (  -9.28%)
   displ. norm   :     0.7057025 α      lambda       -0.1245719E-02
   maximum displ.:     0.3469107 α      in ANC's #5, #8, #6, ...

........................................................................
.............................. CYCLE   14 ..............................
........................................................................

 iter      E             dE          RMSdq      gap      omega  full diag
   1   -114.1154149 -0.114115E+03  0.147E-01    2.24       0.0  T
   2   -114.1154276 -0.126588E-04  0.816E-02    2.24       1.0  T
   3   -114.1154246  0.296764E-05  0.148E-02    2.24       1.0  T
   4   -114.1154270 -0.242081E-05  0.734E-03    2.24       1.5  T
   5   -114.1154296 -0.260887E-05  0.220E-03    2.24       5.1  T
   6   -114.1154298 -0.207668E-06  0.709E-04    2.24      15.8  T
   7   -114.1154298 -0.131033E-07  0.396E-04    2.24      28.2  T
     SCC iter.                  ...        0 min,  1.085 sec
     gradient                   ...        0 min,  0.115 sec
 * total energy  :  -112.2967982 Eh     change       -0.8324044E-03 Eh
   gradient norm :     0.0137601 Eh/α   predicted    -0.9330558E-03 (  12.09%)
   displ. norm   :     0.5940602 α      lambda       -0.1276151E-02
   maximum displ.:     0.2763487 α      in ANC's #5, #6, #8, ...

........................................................................
.............................. CYCLE   15 ..............................
........................................................................

 iter      E             dE          RMSdq      gap      omega  full diag
   1   -114.1213157 -0.114121E+03  0.134E-01    2.25       0.0  T
   2   -114.1213267 -0.109811E-04  0.757E-02    2.26       1.0  T
   3   -114.1213225  0.414184E-05  0.128E-02    2.26       1.0  T
   4   -114.1213264 -0.391373E-05  0.676E-03    2.26       1.7  T
   5   -114.1213288 -0.232647E-05  0.210E-03    2.26       5.3  T
   6   -114.1213289 -0.962434E-07  0.106E-03    2.26      10.6  T
   7   -114.1213289 -0.275212E-07  0.721E-04    2.26      15.5  T
   8   -114.1213289 -0.674888E-08  0.432E-04    2.26      25.9  T
     SCC iter.                  ...        0 min,  1.052 sec
     gradient                   ...        0 min,  0.145 sec
 * total energy  :  -112.2975834 Eh     change       -0.7852736E-03 Eh
   gradient norm :     0.0110948 Eh/α   predicted    -0.8632639E-03 (   9.93%)
   displ. norm   :     0.5039155 α      lambda       -0.6963831E-03
   maximum displ.:     0.2447759 α      in ANC's #5, #6, #8, ...

........................................................................
.............................. CYCLE   16 ..............................
........................................................................

 iter      E             dE          RMSdq      gap      omega  full diag
   1   -114.1204633 -0.114120E+03  0.935E-02    2.27       0.0  T
   2   -114.1204661 -0.283540E-05  0.529E-02    2.27       1.0  T
   3   -114.1204630  0.313025E-05  0.945E-03    2.27       1.2  T
   4   -114.1204663 -0.330656E-05  0.433E-03    2.27       2.6  T
   5   -114.1204671 -0.793831E-06  0.123E-03    2.27       9.1  T
   6   -114.1204671 -0.608328E-07  0.625E-04    2.27      17.9  T
   7   -114.1204671 -0.110107E-07  0.394E-04    2.27      28.4  T
     SCC iter.                  ...        0 min,  0.788 sec
     gradient                   ...        0 min,  0.114 sec
 * total energy  :  -112.2981598 Eh     change       -0.5763409E-03 Eh
   gradient norm :     0.0087468 Eh/α   predicted    -0.4366111E-03 ( -24.24%)
   displ. norm   :     0.5583795 α      lambda       -0.8895092E-03
   maximum displ.:     0.2386110 α      in ANC's #5, #9, #6, ...

........................................................................
.............................. CYCLE   17 ..............................
........................................................................

 iter      E             dE          RMSdq      gap      omega  full diag
   1   -114.1281347 -0.114128E+03  0.970E-02    2.31       0.0  T
   2   -114.1281388 -0.407956E-05  0.559E-02    2.31       1.0  T
   3   -114.1281317  0.713012E-05  0.112E-02    2.31       1.0  T
   4   -114.1281391 -0.743354E-05  0.481E-03    2.31       2.3  T
   5   -114.1281402 -0.110925E-05  0.215E-03    2.31       5.2  T
   6   -114.1281404 -0.170891E-06  0.138E-03    2.31       8.1  T
   7   -114.1281404 -0.718534E-07  0.785E-04    2.31      14.2  T
   8   -114.1281404 -0.246267E-08  0.422E-04    2.31      26.5  T
     SCC iter.                  ...        0 min,  0.973 sec
     gradient                   ...        0 min,  0.113 sec
 * total energy  :  -112.2987770 Eh     change       -0.6171662E-03 Eh
   gradient norm :     0.0072862 Eh/α   predicted    -0.5834298E-03 (  -5.47%)
   displ. norm   :     0.6363555 α      lambda       -0.6601198E-03
   maximum displ.:     0.2979719 α      in ANC's #5, #6, #9, ...

........................................................................
.............................. CYCLE   18 ..............................
........................................................................

 iter      E             dE          RMSdq      gap      omega  full diag
   1   -114.1209314 -0.114121E+03  0.106E-01    2.33       0.0  T
   2   -114.1209369 -0.554908E-05  0.607E-02    2.33       1.0  T
   3   -114.1209334  0.351348E-05  0.103E-02    2.33       1.1  T
   4   -114.1209370 -0.356131E-05  0.453E-03    2.33       2.5  T
   5   -114.1209381 -0.111228E-05  0.196E-03    2.33       5.7  T
   6   -114.1209383 -0.178889E-06  0.959E-04    2.33      11.7  T
   7   -114.1209383 -0.592489E-07  0.367E-04    2.33      30.4  T
     SCC iter.                  ...        0 min,  0.728 sec
     gradient                   ...        0 min,  0.113 sec
 * total energy  :  -112.2992170 Eh     change       -0.4400324E-03 Eh
   gradient norm :     0.0102713 Eh/α   predicted    -0.4637178E-03 (   5.38%)
   displ. norm   :     0.4733853 α      lambda       -0.5211906E-03
   maximum displ.:     0.2089753 α      in ANC's #9, #5, #6, ...

........................................................................
.............................. CYCLE   19 ..............................
........................................................................

 iter      E             dE          RMSdq      gap      omega  full diag
   1   -114.1228687 -0.114123E+03  0.775E-02    2.34       0.0  T
   2   -114.1228712 -0.246543E-05  0.451E-02    2.34       1.0  T
   3   -114.1228692  0.196411E-05  0.625E-03    2.34       1.8  T
   4   -114.1228710 -0.183026E-05  0.319E-03    2.34       3.5  T
   5   -114.1228718 -0.714141E-06  0.134E-03    2.34       8.3  T
   6   -114.1228718 -0.443691E-07  0.770E-04    2.34      14.5  T
   7   -114.1228718 -0.273016E-07  0.357E-04    2.34      31.3  T
     SCC iter.                  ...        0 min,  0.767 sec
     gradient                   ...        0 min,  0.169 sec
 * total energy  :  -112.2996033 Eh     change       -0.3862894E-03 Eh
   gradient norm :     0.0087132 Eh/α   predicted    -0.3190012E-03 ( -17.42%)
   displ. norm   :     0.5202091 α      lambda       -0.5374317E-03
   maximum displ.:     0.2300806 α      in ANC's #9, #5, #6, ...

........................................................................
.............................. CYCLE   20 ..............................
........................................................................

 iter      E             dE          RMSdq      gap      omega  full diag
   1   -114.1256591 -0.114126E+03  0.844E-02    2.34       0.0  T
   2   -114.1256610 -0.191928E-05  0.492E-02    2.34       1.0  T
   3   -114.1256556  0.536089E-05  0.823E-03    2.34       1.4  T
   4   -114.1256614 -0.574888E-05  0.321E-03    2.34       3.5  T
   5   -114.1256619 -0.472352E-06  0.161E-03    2.34       7.0  T
   6   -114.1256619 -0.455331E-07  0.886E-04    2.34      12.6  T
   7   -114.1256619 -0.237424E-07  0.482E-04    2.34      23.2  T
     SCC iter.                  ...        0 min,  0.731 sec
     gradient                   ...        0 min,  0.122 sec
 * total energy  :  -112.2999852 Eh     change       -0.3819566E-03 Eh
   gradient norm :     0.0082558 Eh/α   predicted    -0.3414376E-03 ( -10.61%)
   displ. norm   :     0.5468743 α      lambda       -0.4697080E-03
   maximum displ.:     0.2495847 α      in ANC's #5, #9, #6, ...
 * RMSD in coord.:     1.0010906 α      energy gain  -0.2678346E+00 Eh

generating ANC from exact Hessian ...
Using Lindh-Hessian (1995)
 Shifting diagonal of input Hessian by    1.0139545738942419E-002
 Lowest  eigenvalues of input Hessian
    0.010000    0.010076    0.000000    0.000000    0.000000    0.000000
    0.000000    0.000000    0.010275    0.010380    0.010392    0.010542
    0.010572    0.010745    0.010936    0.011204    0.011358    0.011647
 Highest eigenvalues
    1.991312    2.011196    2.028975    2.074967    2.115930    2.128494


........................................................................
.............................. CYCLE   21 ..............................
........................................................................

 iter      E             dE          RMSdq      gap      omega  full diag
   1   -114.1270573 -0.114127E+03  0.887E-02    2.33       0.0  T
   2   -114.1270595 -0.226337E-05  0.517E-02    2.33       1.0  T
   3   -114.1270511  0.842214E-05  0.995E-03    2.33       1.1  T
   4   -114.1270601 -0.894548E-05  0.342E-03    2.33       3.3  T
   5   -114.1270607 -0.603024E-06  0.159E-03    2.33       7.0  T
   6   -114.1270607 -0.679901E-07  0.754E-04    2.33      14.8  T
   7   -114.1270607 -0.187466E-07  0.402E-04    2.33      27.8  T
     SCC iter.                  ...        0 min,  1.087 sec
     gradient                   ...        0 min,  0.149 sec
 * total energy  :  -112.3003273 Eh     change       -0.3420410E-03 Eh
   gradient norm :     0.0076510 Eh/α   predicted     0.0000000E+00 (-100.00%)
   displ. norm   :     0.0866362 α      lambda       -0.2331348E-03
   maximum displ.:     0.0428451 α      in ANC's #5, #14, #39, ...

........................................................................
.............................. CYCLE   22 ..............................
........................................................................

 iter      E             dE          RMSdq      gap      omega  full diag
   1   -114.1275992 -0.114128E+03  0.459E-02    2.26       0.0  T
   2   -114.1276027 -0.349621E-05  0.230E-02    2.27       1.0  T
   3   -114.1276027 -0.262606E-07  0.676E-03    2.27       1.7  T
   4   -114.1276028 -0.130634E-06  0.396E-03    2.27       2.8  T
   5   -114.1276033 -0.420442E-06  0.150E-03    2.27       7.4  T
   6   -114.1276033 -0.260743E-07  0.616E-04    2.27      18.2  T
   7   -114.1276033 -0.287297E-08  0.370E-04    2.27      30.2  T
     SCC iter.                  ...        0 min,  0.692 sec
     gradient                   ...        0 min,  0.168 sec
 * total energy  :  -112.3004795 Eh     change       -0.1522510E-03 Eh
   gradient norm :     0.0036403 Eh/α   predicted    -0.1174466E-03 ( -22.86%)
   displ. norm   :     0.1357367 α      lambda       -0.1495593E-03
   maximum displ.:     0.0724669 α      in ANC's #5, #14, #6, ...

........................................................................
.............................. CYCLE   23 ..............................
........................................................................

 iter      E             dE          RMSdq      gap      omega  full diag
   1   -114.1279099 -0.114128E+03  0.351E-02    2.27       0.0  T
   2   -114.1279110 -0.109097E-05  0.188E-02    2.27       1.0  T
   3   -114.1279108  0.160339E-06  0.484E-03    2.27       2.3  T
   4   -114.1279109 -0.140552E-06  0.245E-03    2.27       4.6  T
   5   -114.1279111 -0.204555E-06  0.105E-03    2.27      10.6  T
   6   -114.1279112 -0.249854E-07  0.566E-04    2.27      19.7  T
   7   -114.1279112 -0.752485E-08  0.373E-04    2.27      29.9  T
     SCC iter.                  ...        0 min,  0.635 sec
     gradient                   ...        0 min,  0.112 sec
 * total energy  :  -112.3005876 Eh     change       -0.1081000E-03 Eh
   gradient norm :     0.0025554 Eh/α   predicted    -0.7615980E-04 ( -29.55%)
   displ. norm   :     0.2037409 α      lambda       -0.1448392E-03
   maximum displ.:     0.1088773 α      in ANC's #5, #14, #6, ...

........................................................................
.............................. CYCLE   24 ..............................
........................................................................

 iter      E             dE          RMSdq      gap      omega  full diag
   1   -114.1272650 -0.114127E+03  0.429E-02    2.27       0.0  T
   2   -114.1272661 -0.109238E-05  0.252E-02    2.27       1.0  T
   3   -114.1272654  0.680439E-06  0.523E-03    2.27       2.1  T
   4   -114.1272661 -0.645683E-06  0.247E-03    2.27       4.5  T
   5   -114.1272663 -0.202086E-06  0.154E-03    2.27       7.3  T
   6   -114.1272664 -0.797076E-07  0.843E-04    2.27      13.3  T
   7   -114.1272664 -0.260655E-07  0.475E-04    2.27      23.5  T
     SCC iter.                  ...        0 min,  0.979 sec
     gradient                   ...        0 min,  0.141 sec
 * total energy  :  -112.3006954 Eh     change       -0.1077868E-03 Eh
   gradient norm :     0.0043604 Eh/α   predicted    -0.7542809E-04 ( -30.02%)
   displ. norm   :     0.2906099 α      lambda       -0.1692872E-03
   maximum displ.:     0.1537705 α      in ANC's #5, #11, #7, ...

........................................................................
.............................. CYCLE   25 ..............................
........................................................................

 iter      E             dE          RMSdq      gap      omega  full diag
   1   -114.1264440 -0.114126E+03  0.535E-02    2.28       0.0  T
   2   -114.1264449 -0.866366E-06  0.303E-02    2.28       1.0  T
   3   -114.1264437  0.119778E-05  0.555E-03    2.28       2.0  T
   4   -114.1264449 -0.124122E-05  0.246E-03    2.28       4.5  T
   5   -114.1264452 -0.255438E-06  0.838E-04    2.28      13.3  T
   6   -114.1264452 -0.353040E-07  0.377E-04    2.28      29.7  T
     SCC iter.                  ...        0 min,  0.641 sec
     gradient                   ...        0 min,  0.112 sec
 * total energy  :  -112.3008190 Eh     change       -0.1236065E-03 Eh
   gradient norm :     0.0054208 Eh/α   predicted    -0.9179330E-04 ( -25.74%)
   displ. norm   :     0.3350407 α      lambda       -0.1780326E-03
   maximum displ.:     0.1806684 α      in ANC's #5, #11, #7, ...

........................................................................
.............................. CYCLE   26 ..............................
........................................................................

 iter      E             dE          RMSdq      gap      omega  full diag
   1   -114.1257628 -0.114126E+03  0.540E-02    2.28       0.0  T
   2   -114.1257638 -0.999410E-06  0.311E-02    2.28       1.0  T
   3   -114.1257627  0.109819E-05  0.590E-03    2.28       1.9  T
   4   -114.1257640 -0.129699E-05  0.262E-03    2.28       4.3  T
   5   -114.1257641 -0.158558E-06  0.130E-03    2.28       8.6  T
   6   -114.1257642 -0.206668E-07  0.679E-04    2.28      16.5  T
   7   -114.1257642 -0.353816E-08  0.496E-04    2.28      22.5  T
     SCC iter.                  ...        0 min,  0.639 sec
     gradient                   ...        0 min,  0.113 sec
 * total energy  :  -112.3009573 Eh     change       -0.1382375E-03 Eh
   gradient norm :     0.0051610 Eh/α   predicted    -0.9900875E-04 ( -28.38%)
   displ. norm   :     0.3829548 α      lambda       -0.1985303E-03
   maximum displ.:     0.2067942 α      in ANC's #5, #11, #7, ...

........................................................................
.............................. CYCLE   27 ..............................
........................................................................

 iter      E             dE          RMSdq      gap      omega  full diag
   1   -114.1261099 -0.114126E+03  0.545E-02    2.28       0.0  T
   2   -114.1261113 -0.138257E-05  0.307E-02    2.28       1.0  T
   3   -114.1261099  0.139332E-05  0.616E-03    2.28       1.8  T
   4   -114.1261113 -0.139914E-05  0.302E-03    2.28       3.7  T
   5   -114.1261117 -0.387681E-06  0.111E-03    2.28      10.1  T
   6   -114.1261118 -0.361862E-07  0.637E-04    2.28      17.5  T
   7   -114.1261118 -0.226191E-07  0.315E-04    2.28      35.5  T
     SCC iter.                  ...        0 min,  0.859 sec
     gradient                   ...        0 min,  0.168 sec
 * total energy  :  -112.3011189 Eh     change       -0.1616041E-03 Eh
   gradient norm :     0.0040833 Eh/α   predicted    -0.1138241E-03 ( -29.57%)
   displ. norm   :     0.4518146 α      lambda       -0.2313042E-03
   maximum displ.:     0.2438011 α      in ANC's #5, #11, #7, ...

........................................................................
.............................. CYCLE   28 ..............................
........................................................................

 iter      E             dE          RMSdq      gap      omega  full diag
   1   -114.1271446 -0.114127E+03  0.574E-02    2.28       0.0  T
   2   -114.1271460 -0.136672E-05  0.333E-02    2.28       1.0  T
   3   -114.1271432  0.277734E-05  0.695E-03    2.28       1.6  T
   4   -114.1271463 -0.307948E-05  0.236E-03    2.27       4.7  T
   5   -114.1271465 -0.175116E-06  0.119E-03    2.27       9.4  T
   6   -114.1271465 -0.655667E-07  0.578E-04    2.27      19.4  T
   7   -114.1271466 -0.225612E-07  0.181E-04    2.27      61.8  T
     SCC iter.                  ...        0 min,  0.839 sec
     gradient                   ...        0 min,  0.151 sec
 * total energy  :  -112.3013036 Eh     change       -0.1847100E-03 Eh
   gradient norm :     0.0042958 Eh/α   predicted    -0.1392763E-03 ( -24.60%)
   displ. norm   :     0.4580436 α      lambda       -0.2220603E-03
   maximum displ.:     0.2457402 α      in ANC's #5, #11, #10, ...

........................................................................
.............................. CYCLE   29 ..............................
........................................................................

 iter      E             dE          RMSdq      gap      omega  full diag
   1   -114.1280679 -0.114128E+03  0.580E-02    2.27       0.0  T
   2   -114.1280692 -0.123961E-05  0.336E-02    2.27       1.0  T
   3   -114.1280673  0.186872E-05  0.616E-03    2.27       1.8  T
   4   -114.1280691 -0.178658E-05  0.271E-03    2.27       4.1  T
   5   -114.1280695 -0.463677E-06  0.108E-03    2.27      10.4  T
   6   -114.1280696 -0.372745E-07  0.616E-04    2.27      18.2  T
   7   -114.1280696 -0.275590E-07  0.164E-04    2.27      68.3  T
     SCC iter.                  ...        0 min,  0.754 sec
     gradient                   ...        0 min,  0.113 sec
 * total energy  :  -112.3014811 Eh     change       -0.1774870E-03 Eh
   gradient norm :     0.0055177 Eh/α   predicted    -0.1343248E-03 ( -24.32%)
   displ. norm   :     0.4593325 α      lambda       -0.2244179E-03
   maximum displ.:     0.2439205 α      in ANC's #5, #11, #10, ...

........................................................................
.............................. CYCLE   30 ..............................
........................................................................

 iter      E             dE          RMSdq      gap      omega  full diag
   1   -114.1290459 -0.114129E+03  0.588E-02    2.28       0.0  T
   2   -114.1290469 -0.105721E-05  0.347E-02    2.27       1.0  T
   3   -114.1290453  0.161176E-05  0.597E-03    2.27       1.9  T
   4   -114.1290471 -0.182854E-05  0.222E-03    2.27       5.0  T
   5   -114.1290472 -0.763301E-07  0.144E-03    2.27       7.8  T
   6   -114.1290473 -0.986824E-07  0.620E-04    2.27      18.0  T
   7   -114.1290473 -0.129828E-07  0.346E-04    2.27      32.3  T
     SCC iter.                  ...        0 min,  1.028 sec
     gradient                   ...        0 min,  0.114 sec
 * total energy  :  -112.3016591 Eh     change       -0.1780803E-03 Eh
   gradient norm :     0.0058854 Eh/α   predicted    -0.1358845E-03 ( -23.69%)
   displ. norm   :     0.4528705 α      lambda       -0.2238984E-03
   maximum displ.:     0.2373538 α      in ANC's #5, #11, #10, ...

........................................................................
.............................. CYCLE   31 ..............................
........................................................................

 iter      E             dE          RMSdq      gap      omega  full diag
   1   -114.1294551 -0.114129E+03  0.585E-02    2.27       0.0  T
   2   -114.1294559 -0.888766E-06  0.338E-02    2.28       1.0  T
   3   -114.1294552  0.763798E-06  0.473E-03    2.28       2.4  T
   4   -114.1294558 -0.645660E-06  0.257E-03    2.28       4.3  T
   5   -114.1294563 -0.431823E-06  0.586E-04    2.28      19.1  T
   6   -114.1294563 -0.639268E-08  0.306E-04    2.28      36.6  T
     SCC iter.                  ...        0 min,  0.924 sec
     gradient                   ...        0 min,  0.115 sec
 * total energy  :  -112.3018345 Eh     change       -0.1753761E-03 Eh
   gradient norm :     0.0050044 Eh/α   predicted    -0.1349101E-03 ( -23.07%)
   displ. norm   :     0.4413157 α      lambda       -0.2150917E-03
   maximum displ.:     0.2261716 α      in ANC's #5, #11, #10, ...

........................................................................
.............................. CYCLE   32 ..............................
........................................................................

 iter      E             dE          RMSdq      gap      omega  full diag
   1   -114.1295286 -0.114130E+03  0.570E-02    2.29       0.0  T
   2   -114.1295297 -0.113305E-05  0.330E-02    2.29       1.0  T
   3   -114.1295292  0.556342E-06  0.473E-03    2.29       2.4  T
   4   -114.1295296 -0.460643E-06  0.290E-03    2.29       3.9  T
   5   -114.1295300 -0.353242E-06  0.130E-03    2.29       8.6  T
   6   -114.1295300 -0.411151E-07  0.697E-04    2.29      16.0  T
   7   -114.1295300 -0.195628E-07  0.393E-04    2.29      28.5  T
     SCC iter.                  ...        0 min,  0.767 sec
     gradient                   ...        0 min,  0.112 sec
 * total energy  :  -112.3019979 Eh     change       -0.1634169E-03 Eh
   gradient norm :     0.0038008 Eh/α   predicted    -0.1284924E-03 ( -21.37%)
   displ. norm   :     0.3889718 α      lambda       -0.1825160E-03
   maximum displ.:     0.1903724 α      in ANC's #5, #10, #11, ...

........................................................................
.............................. CYCLE   33 ..............................
........................................................................

 iter      E             dE          RMSdq      gap      omega  full diag
   1   -114.1297740 -0.114130E+03  0.499E-02    2.29       0.0  T
   2   -114.1297748 -0.753329E-06  0.286E-02    2.30       1.0  T
   3   -114.1297732  0.161272E-05  0.582E-03    2.30       1.9  T
   4   -114.1297747 -0.148119E-05  0.271E-03    2.30       4.1  T
   5   -114.1297750 -0.340976E-06  0.117E-03    2.30       9.5  T
   6   -114.1297751 -0.121623E-06  0.350E-04    2.30      31.9  T
   7   -114.1297751 -0.391333E-08  0.169E-04    2.30      66.3  T
     SCC iter.                  ...        0 min,  0.813 sec
     gradient                   ...        0 min,  0.169 sec
 * total energy  :  -112.3021358 Eh     change       -0.1378824E-03 Eh
   gradient norm :     0.0040263 Eh/α   predicted    -0.1050703E-03 ( -23.80%)
   displ. norm   :     0.3561630 α      lambda       -0.1618387E-03
   maximum displ.:     0.1720077 α      in ANC's #10, #5, #11, ...

........................................................................
.............................. CYCLE   34 ..............................
........................................................................

 iter      E             dE          RMSdq      gap      omega  full diag
   1   -114.1293467 -0.114129E+03  0.463E-02    2.31       0.0  T
   2   -114.1293474 -0.724599E-06  0.270E-02    2.31       1.0  T
   3   -114.1293459  0.157000E-05  0.536E-03    2.31       2.1  T
   4   -114.1293475 -0.162309E-05  0.217E-03    2.31       5.2  T
   5   -114.1293476 -0.164201E-06  0.111E-03    2.31      10.1  T
   6   -114.1293477 -0.606029E-07  0.417E-04    2.31      26.8  T
   7   -114.1293477 -0.786393E-08  0.194E-04    2.31      57.7  T
     SCC iter.                  ...        0 min,  1.053 sec
     gradient                   ...        0 min,  0.154 sec
 * total energy  :  -112.3022610 Eh     change       -0.1252374E-03 Eh
   gradient norm :     0.0049902 Eh/α   predicted    -0.9118438E-04 ( -27.19%)
   displ. norm   :     0.3387770 α      lambda       -0.1836163E-03
   maximum displ.:     0.1509243 α      in ANC's #10, #14, #5, ...

........................................................................
.............................. CYCLE   35 ..............................
........................................................................

 iter      E             dE          RMSdq      gap      omega  full diag
   1   -114.1316801 -0.114132E+03  0.506E-02    2.32       0.0  T
   2   -114.1316811 -0.103946E-05  0.292E-02    2.32       1.0  T
   3   -114.1316786  0.256956E-05  0.647E-03    2.32       1.7  T
   4   -114.1316814 -0.280582E-05  0.219E-03    2.32       5.1  T
   5   -114.1316815 -0.112774E-06  0.116E-03    2.32       9.7  T
   6   -114.1316816 -0.704970E-07  0.514E-04    2.32      21.8  T
   7   -114.1316816 -0.152951E-07  0.231E-04    2.32      48.4  T
     SCC iter.                  ...        0 min,  0.989 sec
     gradient                   ...        0 min,  0.144 sec
 * total energy  :  -112.3023769 Eh     change       -0.1158138E-03 Eh
   gradient norm :     0.0057503 Eh/α   predicted    -0.1023508E-03 ( -11.62%)
   displ. norm   :     0.5263704 α      lambda       -0.2337151E-03
   maximum displ.:     0.2728822 α      in ANC's #10, #5, #11, ...

........................................................................
.............................. CYCLE   36 ..............................
........................................................................

 iter      E             dE          RMSdq      gap      omega  full diag
   1   -114.1242170 -0.114124E+03  0.747E-02    2.32       0.0  T
   2   -114.1242204 -0.332726E-05  0.434E-02    2.32       1.0  T
   3   -114.1242177  0.267856E-05  0.792E-03    2.32       1.4  T
   4   -114.1242207 -0.300527E-05  0.306E-03    2.32       3.7  T
   5   -114.1242211 -0.404872E-06  0.150E-03    2.32       7.4  T
   6   -114.1242212 -0.884116E-07  0.623E-04    2.32      18.0  T
   7   -114.1242212 -0.208196E-07  0.281E-04    2.32      39.8  T
     SCC iter.                  ...        0 min,  1.068 sec
     gradient                   ...        0 min,  0.155 sec
 * total energy  :  -112.3024106 Eh     change       -0.3373365E-04 Eh
   gradient norm :     0.0085443 Eh/α   predicted    -0.1492368E-03 ( 342.40%)
   displ. norm   :     0.1970425 α      lambda       -0.2060600E-03
   maximum displ.:     0.1017431 α      in ANC's #11, #5, #10, ...

........................................................................
.............................. CYCLE   37 ..............................
........................................................................

 iter      E             dE          RMSdq      gap      omega  full diag
   1   -114.1291191 -0.114129E+03  0.316E-02    2.32       0.0  T
   2   -114.1291205 -0.139581E-05  0.177E-02    2.32       1.0  T
   3   -114.1291196  0.883923E-06  0.519E-03    2.32       2.2  T
   4   -114.1291206 -0.946121E-06  0.218E-03    2.32       5.1  T
   5   -114.1291207 -0.132506E-06  0.114E-03    2.32       9.8  T
   6   -114.1291208 -0.808819E-07  0.481E-04    2.32      23.2  T
   7   -114.1291208 -0.915675E-08  0.261E-04    2.32      42.8  T
     SCC iter.                  ...        0 min,  0.692 sec
     gradient                   ...        0 min,  0.113 sec
 * total energy  :  -112.3025333 Eh     change       -0.1227327E-03 Eh
   gradient norm :     0.0034358 Eh/α   predicted    -0.1070351E-03 ( -12.79%)
   displ. norm   :     0.1281353 α      lambda       -0.6318704E-04
   maximum displ.:     0.0506806 α      in ANC's #10, #6, #14, ...

........................................................................
.............................. CYCLE   38 ..............................
........................................................................

 iter      E             dE          RMSdq      gap      omega  full diag
   1   -114.1303559 -0.114130E+03  0.247E-02    2.33       0.0  T
   2   -114.1303563 -0.447913E-06  0.138E-02    2.33       1.0  T
   3   -114.1303557  0.604595E-06  0.416E-03    2.33       2.7  T
   4   -114.1303564 -0.705163E-06  0.153E-03    2.33       7.3  T
   5   -114.1303564 -0.300379E-07  0.804E-04    2.33      13.9  T
   6   -114.1303565 -0.451556E-07  0.366E-04    2.33      30.5  T
     SCC iter.                  ...        0 min,  0.818 sec
     gradient                   ...        0 min,  0.114 sec
 * total energy  :  -112.3025807 Eh     change       -0.4736956E-04 Eh
   gradient norm :     0.0021759 Eh/α   predicted    -0.3212062E-04 ( -32.19%)
   displ. norm   :     0.2080583 α      lambda       -0.6764095E-04
   maximum displ.:     0.0955833 α      in ANC's #10, #5, #6, ...

........................................................................
.............................. CYCLE   39 ..............................
........................................................................

 iter      E             dE          RMSdq      gap      omega  full diag
   1   -114.1299794 -0.114130E+03  0.380E-02    2.34       0.0  T
   2   -114.1299802 -0.749219E-06  0.212E-02    2.33       1.0  T
   3   -114.1299793  0.891103E-06  0.524E-03    2.33       2.1  T
   4   -114.1299802 -0.956773E-06  0.225E-03    2.33       5.0  T
   5   -114.1299803 -0.101658E-06  0.119E-03    2.33       9.4  T
   6   -114.1299804 -0.110350E-06  0.505E-04    2.33      22.1  T
   7   -114.1299804 -0.621550E-08  0.307E-04    2.33      36.4  T
     SCC iter.                  ...        0 min,  1.117 sec
     gradient                   ...        0 min,  0.115 sec
 * total energy  :  -112.3026250 Eh     change       -0.4426552E-04 Eh
   gradient norm :     0.0023124 Eh/α   predicted    -0.3528917E-04 ( -20.28%)
   displ. norm   :     0.1820849 α      lambda       -0.3818188E-04
   maximum displ.:     0.0821888 α      in ANC's #10, #5, #6, ...

........................................................................
.............................. CYCLE   40 ..............................
........................................................................

 iter      E             dE          RMSdq      gap      omega  full diag
   1   -114.1295565 -0.114130E+03  0.292E-02    2.34       0.0  T
   2   -114.1295570 -0.474028E-06  0.164E-02    2.34       1.0  T
   3   -114.1295567  0.287838E-06  0.346E-03    2.34       3.2  T
   4   -114.1295570 -0.305521E-06  0.162E-03    2.34       6.9  T
   5   -114.1295571 -0.868543E-07  0.715E-04    2.34      15.6  T
   6   -114.1295571 -0.256702E-07  0.375E-04    2.34      29.8  T
     SCC iter.                  ...        0 min,  0.649 sec
     gradient                   ...        0 min,  0.113 sec
 * total energy  :  -112.3026483 Eh     change       -0.2335857E-04 Eh
   gradient norm :     0.0026502 Eh/α   predicted    -0.1972493E-04 ( -15.56%)
   displ. norm   :     0.1407817 α      lambda       -0.2986448E-04
   maximum displ.:     0.0724733 α      in ANC's #5, #10, #8, ...

........................................................................
.............................. CYCLE   41 ..............................
........................................................................

 iter      E             dE          RMSdq      gap      omega  full diag
   1   -114.1292865 -0.114129E+03  0.216E-02    2.35       0.0  T
   2   -114.1292867 -0.247691E-06  0.121E-02    2.35       1.0  T
   3   -114.1292867  0.908116E-07  0.236E-03    2.35       4.7  T
   4   -114.1292868 -0.960215E-07  0.111E-03    2.35      10.1  T
   5   -114.1292868 -0.308411E-07  0.568E-04    2.35      19.7  T
   6   -114.1292868 -0.221739E-07  0.230E-04    2.35      48.6  T
     SCC iter.                  ...        0 min,  0.777 sec
     gradient                   ...        0 min,  0.122 sec
 * total energy  :  -112.3026703 Eh     change       -0.2199485E-04 Eh
   gradient norm :     0.0020818 Eh/α   predicted    -0.1522853E-04 ( -30.76%)
   displ. norm   :     0.1497524 α      lambda       -0.3923166E-04
   maximum displ.:     0.0725804 α      in ANC's #5, #6, #8, ...

........................................................................
.............................. CYCLE   42 ..............................
........................................................................

 iter      E             dE          RMSdq      gap      omega  full diag
   1   -114.1296325 -0.114130E+03  0.239E-02    2.35       0.0  T
   2   -114.1296329 -0.338691E-06  0.134E-02    2.35       1.0  T
   3   -114.1296327  0.123640E-06  0.302E-03    2.35       3.7  T
   4   -114.1296329 -0.174451E-06  0.113E-03    2.35       9.9  T
   5   -114.1296329 -0.113962E-07  0.511E-04    2.35      21.9  T
   6   -114.1296329 -0.157019E-07  0.185E-04    2.35      60.5  T
     SCC iter.                  ...        0 min,  0.685 sec
     gradient                   ...        0 min,  0.113 sec
 * total energy  :  -112.3026978 Eh     change       -0.2751103E-04 Eh
   gradient norm :     0.0020053 Eh/α   predicted    -0.2005755E-04 ( -27.09%)
   displ. norm   :     0.1438990 α      lambda       -0.2946689E-04
   maximum displ.:     0.0643301 α      in ANC's #5, #6, #9, ...
 * RMSD in coord.:     0.5613248 α      energy gain  -0.2712597E-02 Eh

generating ANC from exact Hessian ...
Using Lindh-Hessian (1995)
 Shifting diagonal of input Hessian by    1.0081308227982130E-002
 Lowest  eigenvalues of input Hessian
    0.010000    0.000000    0.000000    0.000000    0.000000    0.000000
    0.000000    0.010167    0.010198    0.010338    0.010372    0.010505
    0.010539    0.010698    0.010880    0.011193    0.011457    0.011885
 Highest eigenvalues
    1.993338    2.011814    2.028151    2.076478    2.115749    2.127734


........................................................................
.............................. CYCLE   43 ..............................
........................................................................

 iter      E             dE          RMSdq      gap      omega  full diag
   1   -114.1299386 -0.114130E+03  0.225E-02    2.35       0.0  T
   2   -114.1299389 -0.282127E-06  0.126E-02    2.35       1.0  T
   3   -114.1299388  0.139914E-06  0.289E-03    2.35       3.9  T
   4   -114.1299389 -0.179704E-06  0.117E-03    2.35       9.6  T
   5   -114.1299389 -0.102378E-08  0.616E-04    2.35      18.1  T
   6   -114.1299390 -0.290559E-07  0.216E-04    2.35      51.7  T
     SCC iter.                  ...        0 min,  0.897 sec
     gradient                   ...        0 min,  0.127 sec
 * total energy  :  -112.3027183 Eh     change       -0.2043447E-04 Eh
   gradient norm :     0.0022622 Eh/α   predicted     0.0000000E+00 (-100.00%)
   displ. norm   :     0.0228180 α      lambda       -0.1100175E-04
   maximum displ.:     0.0098861 α      in ANC's #9, #6, #31, ...

........................................................................
.............................. CYCLE   44 ..............................
........................................................................

 iter      E             dE          RMSdq      gap      omega  full diag
   1   -114.1301040 -0.114130E+03  0.560E-03    2.35       0.0  T
   2   -114.1301040 -0.321846E-07  0.310E-03    2.35       3.6  T
   3   -114.1301040  0.415781E-07  0.979E-04    2.35      11.4  T
   4   -114.1301040 -0.368023E-07  0.500E-04    2.35      22.3  T
     SCC iter.                  ...        0 min,  0.558 sec
     gradient                   ...        0 min,  0.112 sec
 * total energy  :  -112.3027291 Eh     change       -0.1084890E-04 Eh
   gradient norm :     0.0012876 Eh/α   predicted    -0.6541283E-05 ( -39.71%)
   displ. norm   :     0.1075606 α      lambda       -0.2580848E-04
   maximum displ.:     0.0464378 α      in ANC's #9, #6, #3, ...

........................................................................
.............................. CYCLE   45 ..............................
........................................................................

 iter      E             dE          RMSdq      gap      omega  full diag
   1   -114.1302910 -0.114130E+03  0.216E-02    2.36       0.0  T
   2   -114.1302914 -0.413669E-06  0.122E-02    2.36       1.0  T
   3   -114.1302907  0.632283E-06  0.363E-03    2.35       3.1  T
   4   -114.1302914 -0.646069E-06  0.164E-03    2.36       6.8  T
   5   -114.1302915 -0.101210E-06  0.779E-04    2.36      14.4  T
   6   -114.1302915 -0.290505E-07  0.316E-04    2.36      35.3  T
     SCC iter.                  ...        0 min,  0.686 sec
     gradient                   ...        0 min,  0.121 sec
 * total energy  :  -112.3027441 Eh     change       -0.1501482E-04 Eh
   gradient norm :     0.0021677 Eh/α   predicted    -0.1297069E-04 ( -13.61%)
   displ. norm   :     0.0147011 α      lambda       -0.6760218E-05
   maximum displ.:     0.0062811 α      in ANC's #3, #9, #6, ...

........................................................................
.............................. CYCLE   46 ..............................
........................................................................

 iter      E             dE          RMSdq      gap      omega  full diag
   1   -114.1301267 -0.114130E+03  0.601E-03    2.35       0.0  T
   2   -114.1301268 -0.698969E-07  0.278E-03    2.35       4.0  T
   3   -114.1301268  0.578932E-08  0.100E-03    2.35      11.2  T
   4   -114.1301268 -0.435028E-08  0.546E-04    2.35      20.5  T
   5   -114.1301268 -0.112978E-07  0.239E-04    2.35      46.7  T
     SCC iter.                  ...        0 min,  0.454 sec
     gradient                   ...        0 min,  0.157 sec
 * total energy  :  -112.3027493 Eh     change       -0.5159702E-05 Eh
   gradient norm :     0.0015241 Eh/α   predicted    -0.3381368E-05 ( -34.47%)
   displ. norm   :     0.0669210 α      lambda       -0.1319834E-04
   maximum displ.:     0.0331739 α      in ANC's #3, #6, #9, ...

........................................................................
.............................. CYCLE   47 ..............................
........................................................................

 iter      E             dE          RMSdq      gap      omega  full diag
   1   -114.1296414 -0.114130E+03  0.132E-02    2.35       0.0  T
   2   -114.1296416 -0.198146E-06  0.723E-03    2.35       1.5  T
   3   -114.1296416  0.373045E-07  0.197E-03    2.35       5.7  T
   4   -114.1296416 -0.503986E-07  0.939E-04    2.35      11.9  T
   5   -114.1296417 -0.115294E-07  0.446E-04    2.35      25.1  T
     SCC iter.                  ...        0 min,  0.508 sec
     gradient                   ...        0 min,  0.114 sec
 * total energy  :  -112.3027573 Eh     change       -0.7976856E-05 Eh
   gradient norm :     0.0015155 Eh/α   predicted    -0.6612758E-05 ( -17.10%)
   displ. norm   :     0.0499908 α      lambda       -0.5970483E-05
   maximum displ.:     0.0241148 α      in ANC's #3, #9, #6, ...

........................................................................
.............................. CYCLE   48 ..............................
........................................................................

 iter      E             dE          RMSdq      gap      omega  full diag
   1   -114.1297730 -0.114130E+03  0.112E-02    2.36       0.0  T
   2   -114.1297731 -0.844241E-07  0.591E-03    2.36       1.9  T
   3   -114.1297730  0.710094E-07  0.157E-03    2.36       7.1  T
   4   -114.1297730 -0.381260E-07  0.965E-04    2.36      11.6  T
   5   -114.1297731 -0.555801E-07  0.423E-04    2.36      26.4  T
     SCC iter.                  ...        0 min,  0.671 sec
     gradient                   ...        0 min,  0.168 sec
 * total energy  :  -112.3027633 Eh     change       -0.6059018E-05 Eh
   gradient norm :     0.0009949 Eh/α   predicted    -0.2988869E-05 ( -50.67%)
   displ. norm   :     0.1030791 α      lambda       -0.9847588E-05
   maximum displ.:     0.0513343 α      in ANC's #3, #6, #9, ...

........................................................................
.............................. CYCLE   49 ..............................
........................................................................

 iter      E             dE          RMSdq      gap      omega  full diag
   1   -114.1299437 -0.114130E+03  0.182E-02    2.35       0.0  T
   2   -114.1299439 -0.172351E-06  0.982E-03    2.36       1.1  T
   3   -114.1299438  0.530867E-07  0.220E-03    2.36       5.1  T
   4   -114.1299439 -0.415153E-07  0.125E-03    2.36       9.0  T
   5   -114.1299439 -0.542963E-07  0.459E-04    2.36      24.3  T
   6   -114.1299439 -0.575633E-08  0.293E-04    2.36      38.2  T
     SCC iter.                  ...        0 min,  0.671 sec
     gradient                   ...        0 min,  0.112 sec
 * total energy  :  -112.3027708 Eh     change       -0.7480361E-05 Eh
   gradient norm :     0.0008810 Eh/α   predicted    -0.4948626E-05 ( -33.85%)
   displ. norm   :     0.0740732 α      lambda       -0.5624797E-05
   maximum displ.:     0.0411655 α      in ANC's #3, #6, #8, ...

........................................................................
.............................. CYCLE   50 ..............................
........................................................................

 iter      E             dE          RMSdq      gap      omega  full diag
   1   -114.1301111 -0.114130E+03  0.167E-02    2.36       0.0  T
   2   -114.1301112 -0.148775E-06  0.842E-03    2.36       1.3  T
   3   -114.1301112  0.260579E-07  0.209E-03    2.36       5.3  T
   4   -114.1301112 -0.549041E-08  0.123E-03    2.36       9.1  T
   5   -114.1301113 -0.592966E-07  0.492E-04    2.36      22.7  T
   6   -114.1301113 -0.314850E-08  0.246E-04    2.36      45.4  T
     SCC iter.                  ...        0 min,  0.712 sec
     gradient                   ...        0 min,  0.115 sec
 * total energy  :  -112.3027765 Eh     change       -0.5708798E-05 Eh
   gradient norm :     0.0007956 Eh/α   predicted    -0.2820055E-05 ( -50.60%)
   displ. norm   :     0.0850777 α      lambda       -0.5834439E-05
   maximum displ.:     0.0477808 α      in ANC's #3, #6, #8, ...

........................................................................
.............................. CYCLE   51 ..............................
........................................................................

 iter      E             dE          RMSdq      gap      omega  full diag
   1   -114.1301029 -0.114130E+03  0.154E-02    2.36       0.0  T
   2   -114.1301030 -0.908092E-07  0.844E-03    2.36       1.3  T
   3   -114.1301029  0.932244E-07  0.188E-03    2.36       6.0  T
   4   -114.1301030 -0.970589E-07  0.877E-04    2.36      12.7  T
   5   -114.1301030 -0.191554E-07  0.389E-04    2.36      28.8  T
     SCC iter.                  ...        0 min,  0.471 sec
     gradient                   ...        0 min,  0.128 sec
 * total energy  :  -112.3027827 Eh     change       -0.6209172E-05 Eh
   gradient norm :     0.0006559 Eh/α   predicted    -0.2929481E-05 ( -52.82%)
   displ. norm   :     0.0889062 α      lambda       -0.4736262E-05
   maximum displ.:     0.0530060 α      in ANC's #3, #6, #8, ...

........................................................................
.............................. CYCLE   52 ..............................
........................................................................

 iter      E             dE          RMSdq      gap      omega  full diag
   1   -114.1300159 -0.114130E+03  0.184E-02    2.36       0.0  T
   2   -114.1300160 -0.114993E-06  0.973E-03    2.36       1.1  T
   3   -114.1300160  0.455981E-07  0.193E-03    2.36       5.8  T
   4   -114.1300160 -0.374482E-07  0.105E-03    2.36      10.6  T
   5   -114.1300161 -0.424649E-07  0.263E-04    2.36      42.6  T
   6   -114.1300161 -0.290457E-08  0.116E-04    2.36      96.6  T
     SCC iter.                  ...        0 min,  1.005 sec
     gradient                   ...        0 min,  0.112 sec
 * total energy  :  -112.3027879 Eh     change       -0.5189300E-05 Eh
   gradient norm :     0.0004575 Eh/α   predicted    -0.2378572E-05 ( -54.16%)
   displ. norm   :     0.0730344 α      lambda       -0.3620591E-05
   maximum displ.:     0.0457722 α      in ANC's #3, #6, #8, ...

........................................................................
.............................. CYCLE   53 ..............................
........................................................................

 iter      E             dE          RMSdq      gap      omega  full diag
   1   -114.1300280 -0.114130E+03  0.142E-02    2.36       0.0  T
   2   -114.1300281 -0.847375E-07  0.774E-03    2.36       1.4  T
   3   -114.1300281  0.416785E-07  0.156E-03    2.36       7.2  T
   4   -114.1300281 -0.431946E-07  0.833E-04    2.36      13.4  T
   5   -114.1300281 -0.230474E-07  0.228E-04    2.36      49.1  T
     SCC iter.                  ...        0 min,  0.442 sec
     gradient                   ...        0 min,  0.115 sec
 * total energy  :  -112.3027923 Eh     change       -0.4367627E-05 Eh
   gradient norm :     0.0003988 Eh/α   predicted    -0.1818058E-05 ( -58.37%)
   displ. norm   :     0.0786704 α      lambda       -0.4008936E-05
   maximum displ.:     0.0507545 α      in ANC's #3, #6, #1, ...

........................................................................
.............................. CYCLE   54 ..............................
........................................................................

 iter      E             dE          RMSdq      gap      omega  full diag
   1   -114.1299813 -0.114130E+03  0.146E-02    2.36       0.0  T
   2   -114.1299813 -0.660143E-07  0.790E-03    2.36       1.4  T
   3   -114.1299813  0.452159E-07  0.152E-03    2.36       7.4  T
   4   -114.1299813 -0.323112E-07  0.874E-04    2.36      12.8  T
   5   -114.1299814 -0.335089E-07  0.228E-04    2.36      49.1  T
     SCC iter.                  ...        0 min,  0.412 sec
     gradient                   ...        0 min,  0.112 sec
 * total energy  :  -112.3027974 Eh     change       -0.5157098E-05 Eh
   gradient norm :     0.0005195 Eh/α   predicted    -0.2012597E-05 ( -60.97%)
   displ. norm   :     0.0965617 α      lambda       -0.4874626E-05
   maximum displ.:     0.0625478 α      in ANC's #3, #6, #1, ...

........................................................................
.............................. CYCLE   55 ..............................
........................................................................

 iter      E             dE          RMSdq      gap      omega  full diag
   1   -114.1299150 -0.114130E+03  0.165E-02    2.36       0.0  T
   2   -114.1299151 -0.104088E-06  0.895E-03    2.36       1.2  T
   3   -114.1299150  0.502799E-07  0.175E-03    2.36       6.4  T
   4   -114.1299150 -0.336899E-07  0.993E-04    2.36      11.3  T
   5   -114.1299151 -0.491891E-07  0.207E-04    2.36      54.0  T
     SCC iter.                  ...        0 min,  0.575 sec
     gradient                   ...        0 min,  0.112 sec
 * total energy  :  -112.3028035 Eh     change       -0.6105410E-05 Eh
   gradient norm :     0.0005709 Eh/α   predicted    -0.2451318E-05 ( -59.85%)
   displ. norm   :     0.1027010 α      lambda       -0.4582708E-05
   maximum displ.:     0.0683006 α      in ANC's #3, #6, #1, ...

........................................................................
.............................. CYCLE   56 ..............................
........................................................................

 iter      E             dE          RMSdq      gap      omega  full diag
   1   -114.1299083 -0.114130E+03  0.173E-02    2.37       0.0  T
   2   -114.1299084 -0.113484E-06  0.926E-03    2.37       1.2  T
   3   -114.1299084  0.821465E-07  0.199E-03    2.37       5.6  T
   4   -114.1299084 -0.728304E-07  0.109E-03    2.37      10.3  T
   5   -114.1299085 -0.421992E-07  0.321E-04    2.37      34.8  T
[...]
       115                         -0.2860894              -7.7849
       116                         -0.2770221              -7.5382
       ...                                ...                  ...
       218                          1.2444193              33.8624
      -------------------------------------------------------------
                  HL-Gap            0.0928029 Eh            2.5253 eV
             Fermi-level           -0.4161623 Eh          -11.3244 eV

     #   Z          covCN         q      C6AA      α(0)
     1   6 C        3.757    -0.107    22.606     6.779
     2   6 C        2.980     0.019    27.580     8.615
     3   6 C        2.931    -0.035    28.861     8.810
     4   6 C        2.917    -0.025    28.621     8.773
     5   6 C        2.921    -0.027    28.668     8.780
     6   6 C        2.995    -0.031    28.756     8.796
     7   6 C        2.973     0.034    27.239     8.561
     8  16 S        2.044    -0.070   143.965    20.194
     9  34 Se       1.893    -0.046   237.231    26.839
    10  15 P        4.639     0.251   149.560    21.968
    11   7 N        2.677    -0.145    24.134     7.296
    12   6 C        4.000     0.056    19.571     6.285
    13   6 C        3.755    -0.119    22.837     6.814
    14   6 C        3.755    -0.116    22.783     6.806
    15   6 C        3.903     0.052    19.647     6.301
    16   6 C        3.754    -0.119    22.837     6.814
    17   6 C        3.754    -0.123    22.914     6.826
    18   7 N        2.683    -0.130    23.818     7.248
    19   6 C        3.889    -0.032    21.095     6.529
    20   6 C        3.142     0.054    26.542     8.430
    21   6 C        2.915    -0.049    29.222     8.864
    22   6 C        2.919    -0.033    28.813     8.802
    23   6 C        2.987     0.013    27.723     8.637
    24   6 C        2.919    -0.031    28.776     8.797
    25   6 C        2.915    -0.023    28.570     8.765
    26   6 C        2.917    -0.023    28.571     8.765
    27   6 C        2.917    -0.031    28.778     8.797
    28   6 C        2.989     0.013    27.712     8.635
    29   6 C        2.980    -0.007    28.194     8.710
    30   6 C        2.979    -0.009    28.246     8.718
    31   6 C        3.093     0.054    26.689     8.467
    32   6 C        2.916    -0.051    29.275     8.873
    33   6 C        2.919    -0.035    28.863     8.810
    34   6 C        2.986     0.012    27.744     8.640
    35   6 C        2.919    -0.031    28.772     8.796
    36   6 C        2.915    -0.023    28.567     8.765
    37   6 C        2.917    -0.023    28.573     8.765
    38   6 C        2.917    -0.032    28.797     8.800
    39   6 C        2.988     0.012    27.748     8.641
    40   7 N        2.683    -0.121    23.627     7.219
    41   6 C        3.858    -0.031    21.086     6.531
    42   1 H        0.924     0.062     2.174     2.306
    43   1 H        0.924     0.061     2.188     2.313
    44   1 H        0.925     0.068     2.113     2.273
    45   1 H        0.926     0.055     2.263     2.352
    46   1 H        0.926     0.056     2.250     2.346
    47   1 H        0.926     0.052     2.296     2.369
    48   1 H        0.926     0.046     2.370     2.407
    49   1 H        0.924     0.050     2.316     2.380
    50   1 H        0.925     0.044     2.391     2.418
    51   1 H        0.925     0.056     2.247     2.344
    52   1 H        0.925     0.064     2.155     2.296
    53   1 H        0.925     0.059     2.214     2.327
    54   1 H        0.925     0.063     2.159     2.298
    55   1 H        0.925     0.046     2.368     2.406
    56   1 H        0.924     0.057     2.238     2.340
    57   1 H        0.925     0.059     2.214     2.327
    58   1 H        0.925     0.055     2.262     2.352
    59   1 H        0.925     0.063     2.160     2.298
    60   1 H        0.925     0.044     2.394     2.419
    61   1 H        0.925     0.065     2.147     2.291
    62   1 H        0.925     0.061     2.190     2.314
    63   1 H        0.925     0.069     2.098     2.265
    64   1 H        0.925     0.074     2.042     2.235
    65   1 H        0.924     0.046     2.366     2.405
    66   1 H        0.926     0.036     2.509     2.477
    67   1 H        0.926     0.047     2.358     2.401
    68   1 H        0.926     0.044     2.396     2.421
    69   1 H        0.926     0.050     2.325     2.384
    70   1 H        0.926     0.048     2.350     2.397
    71   1 H        0.926     0.039     2.467     2.456
    72   1 H        0.926     0.043     2.404     2.425
    73   1 H        0.926     0.052     2.298     2.371
    74   1 H        0.926     0.047     2.356     2.400
    75   1 H        0.926     0.050     2.318     2.381
    76   1 H        0.926     0.047     2.357     2.401
    77   1 H        0.926     0.037     2.488     2.467
    78   1 H        0.925     0.076     2.020     2.223
    79   1 H        0.924     0.048     2.344     2.394
    80   1 H        0.924     0.070     2.091     2.261

 Mol. C6AA /au·bohr⁶  :      85724.365801
 Mol. C8AA /au·bohr⁸  :    2384889.420970
 Mol. α(0) /au        :        469.203731


Wiberg/Mayer (AO) data.
largest (>0.10) Wiberg bond orders for each atom

 ---------------------------------------------------------------------------
     #   Z sym  total        # sym  WBO       # sym  WBO       # sym  WBO
 ---------------------------------------------------------------------------
     1   6 C    3.993 --     2 C    1.031    44 H    0.975    42 H    0.952
                            43 H    0.950
     2   6 C    3.987 --     3 C    1.401     7 C    1.377     1 C    1.031
                             5 C    0.104
     3   6 C    3.989 --     4 C    1.448     2 C    1.401    45 H    0.966
                             6 C    0.108
     4   6 C    3.983 --     3 C    1.448     5 C    1.427    46 H    0.968
     5   6 C    3.986 --     6 C    1.443     4 C    1.427    47 H    0.967
                             2 C    0.104
     6   6 C    3.987 --     5 C    1.443     7 C    1.395    48 H    0.966
                             3 C    0.108
     7   6 C    3.945 --     6 C    1.395     2 C    1.377     8 S    0.975
     8  16 S    2.404 --     9 Se   1.219     7 C    0.975
     9  34 Se   2.665 --     8 S    1.219    10 P    0.976
    10  15 P    5.063 --    11 N    1.252    40 N    1.207    18 N    1.195
                             9 Se   0.976
    11   7 N    3.405 --    10 P    1.252    15 C    0.947    12 C    0.933
    12   6 C    3.959 --    14 C    1.004    13 C    1.000    49 H    0.937
                            11 N    0.933
    13   6 C    3.989 --    12 C    1.000    51 H    0.982    52 H    0.980
                            50 H    0.977
    14   6 C    3.987 --    12 C    1.004    54 H    0.978    53 H    0.977
                            55 H    0.975
    15   6 C    3.960 --    16 C    1.005    17 C    1.003    11 N    0.947
                            56 H    0.921
    16   6 C    3.989 --    15 C    1.005    58 H    0.982    59 H    0.979
                            57 H    0.976
    17   6 C    3.989 --    15 C    1.003    61 H    0.980    62 H    0.980
                            60 H    0.975
    18   7 N    3.407 --    10 P    1.195    19 C    0.975    20 C    0.974
    19   6 C    3.963 --    64 H    0.976    18 N    0.975    65 H    0.969
                            63 H    0.961
    20   6 C    3.950 --    29 C    1.451    21 C    1.289    18 N    0.974
    21   6 C    3.988 --    22 C    1.551    20 C    1.289    66 H    0.963
    22   6 C    3.985 --    21 C    1.551    23 C    1.274    67 H    0.966
                            29 C    0.107
    23   6 C    3.987 --    24 C    1.279    22 C    1.274    28 C    1.254
    24   6 C    3.989 --    25 C    1.556    23 C    1.279    68 H    0.967
                            27 C    0.117
    25   6 C    3.986 --    24 C    1.556    26 C    1.322    69 H    0.969
    26   6 C    3.990 --    27 C    1.553    25 C    1.322    70 H    0.970
    27   6 C    3.989 --    26 C    1.553    28 C    1.284    71 H    0.965
                            24 C    0.117
    28   6 C    3.987 --    27 C    1.284    23 C    1.254    29 C    1.234
    29   6 C    3.985 --    20 C    1.451    28 C    1.234    30 C    1.033
                            22 C    0.107
    30   6 C    3.985 --    31 C    1.451    39 C    1.233    29 C    1.033
                            33 C    0.106
    31   6 C    3.948 --    30 C    1.451    32 C    1.285    40 N    0.970
    32   6 C    3.984 --    33 C    1.555    31 C    1.285    72 H    0.962
    33   6 C    3.984 --    32 C    1.555    34 C    1.274    73 H    0.966
                            30 C    0.106
    34   6 C    3.988 --    35 C    1.280    33 C    1.274    39 C    1.254
    35   6 C    3.989 --    36 C    1.555    34 C    1.280    74 H    0.967
                            38 C    0.117
    36   6 C    3.986 --    35 C    1.555    37 C    1.323    75 H    0.969
    37   6 C    3.990 --    38 C    1.553    36 C    1.323    76 H    0.970
    38   6 C    3.989 --    37 C    1.553    39 C    1.285    77 H    0.966
                            35 C    0.117
    39   6 C    3.987 --    38 C    1.285    34 C    1.254    30 C    1.233
    40   7 N    3.418 --    10 P    1.207    41 C    0.973    31 C    0.970
    41   6 C    3.962 --    78 H    0.977    79 H    0.974    40 N    0.973
                            80 H    0.960
    42   1 H    0.995 --     1 C    0.952
    43   1 H    0.996 --     1 C    0.950
    44   1 H    0.994 --     1 C    0.975
    45   1 H    0.997 --     3 C    0.966
    46   1 H    0.996 --     4 C    0.968
    47   1 H    0.996 --     5 C    0.967
    48   1 H    0.998 --     6 C    0.966
    49   1 H    0.997 --    12 C    0.937
    50   1 H    0.998 --    13 C    0.977
    51   1 H    0.996 --    13 C    0.982
    52   1 H    0.996 --    13 C    0.980
    53   1 H    0.996 --    14 C    0.977
    54   1 H    0.995 --    14 C    0.978
    55   1 H    0.998 --    14 C    0.975
    56   1 H    0.997 --    15 C    0.921
    57   1 H    0.994 --    16 C    0.976
    58   1 H    0.997 --    16 C    0.982
    59   1 H    0.995 --    16 C    0.979
    60   1 H    0.998 --    17 C    0.975
    61   1 H    0.995 --    17 C    0.980
    62   1 H    0.996 --    17 C    0.980
    63   1 H    0.994 --    19 C    0.961
    64   1 H    0.994 --    19 C    0.976
    65   1 H    0.998 --    19 C    0.969
    66   1 H    0.998 --    21 C    0.963
    67   1 H    0.996 --    22 C    0.966
    68   1 H    0.997 --    24 C    0.967
    69   1 H    0.997 --    25 C    0.969
    70   1 H    0.997 --    26 C    0.970
    71   1 H    0.998 --    27 C    0.965
    72   1 H    0.997 --    32 C    0.962
    73   1 H    0.996 --    33 C    0.966
    74   1 H    0.997 --    35 C    0.967
    75   1 H    0.997 --    36 C    0.969
    76   1 H    0.997 --    37 C    0.970
    77   1 H    0.998 --    38 C    0.966
    78   1 H    0.994 --    41 C    0.977
    79   1 H    0.997 --    41 C    0.974
    80   1 H    0.994 --    41 C    0.960
 ---------------------------------------------------------------------------

Topologies differ in total number of bonds
Writing topology from bond orders to xtbtopo.mol

molecular dipole:
                 x           y           z       tot (Debye)
 q only:        0.899       1.224      -0.023
   full:        0.821       1.150       0.075       3.597
molecular quadrupole (traceless):
                xx          xy          yy          xz          yz          zz
 q only:        9.706      -0.824      19.370       2.180     -11.533     -29.077
  q+dip:       11.348      -3.139      20.314       7.850     -18.971     -31.661
   full:        8.677      -3.176      20.291       5.145     -13.637     -28.969

           -------------------------------------------------
          |                Geometry Summary                 |
           -------------------------------------------------

      molecular mass/u    :      643.7034933
   center of mass at/Å    :        0.2046854      -0.3408628      -0.1660457
  moments of inertia/u·Å² :        0.5295916E+04   0.6098528E+04   0.9819933E+04
rotational constants/cm⁻¹ :        0.3183138E-02   0.2764213E-02   0.1716675E-02

 * 81 selected distances

     #   Z          #   Z                                           value/Å
     2   6 C        3   6 C                                       1.3921849
     3   6 C        4   6 C                                       1.3821033
     4   6 C        5   6 C                                       1.3847605
     5   6 C        6   6 C                                       1.3813505
     2   6 C        7   6 C                                       1.3938013
     6   6 C        7   6 C                                       1.3887759
     9  34 Se      10  15 P                                       2.2694506 (max)
    10  15 P       11   7 N                                       1.6581546
    11   7 N       12   6 C                                       1.4777347
    12   6 C       13   6 C                                       1.5303630
    12   6 C       14   6 C                                       1.5256565
    11   7 N       15   6 C                                       1.4703025
    15   6 C       16   6 C                                       1.5229549
    15   6 C       17   6 C                                       1.5269376
    10  15 P       18   7 N                                       1.6693260
    18   7 N       19   6 C                                       1.4567666
    18   7 N       20   6 C                                       1.4324694
    20   6 C       21   6 C                                       1.4065210
    21   6 C       22   6 C                                       1.3648450
    22   6 C       23   6 C                                       1.4096347
    23   6 C       24   6 C                                       1.4102836
    24   6 C       25   6 C                                       1.3664740
    25   6 C       26   6 C                                       1.4031433
    26   6 C       27   6 C                                       1.3672397
    23   6 C       28   6 C                                       1.4191879
    27   6 C       28   6 C                                       1.4114391
    20   6 C       29   6 C                                       1.3765796
    28   6 C       29   6 C                                       1.4232927
    30   6 C       31   6 C                                       1.3776600
    31   6 C       32   6 C                                       1.4072362
    32   6 C       33   6 C                                       1.3648702
    33   6 C       34   6 C                                       1.4096600
    34   6 C       35   6 C                                       1.4101518
    35   6 C       36   6 C                                       1.3665349
    36   6 C       37   6 C                                       1.4029406
    37   6 C       38   6 C                                       1.3673539
    30   6 C       39   6 C                                       1.4239018
    34   6 C       39   6 C                                       1.4192728
    38   6 C       39   6 C                                       1.4113387
    10  15 P       40   7 N                                       1.6643055
    31   6 C       40   7 N                                       1.4308696
    40   7 N       41   6 C                                       1.4580864
     1   6 C       42   1 H                                       1.0928107
     1   6 C       43   1 H                                       1.0930956
     1   6 C       44   1 H                                       1.0869848
     3   6 C       45   1 H                                       1.0798509
     4   6 C       46   1 H                                       1.0789294
     5   6 C       47   1 H                                       1.0784314
     6   6 C       48   1 H                                       1.0793086
    12   6 C       49   1 H                                       1.1006196
    13   6 C       50   1 H                                       1.0858190
    13   6 C       51   1 H                                       1.0869591
    13   6 C       52   1 H                                       1.0851883
    14   6 C       53   1 H                                       1.0856799
    14   6 C       54   1 H                                       1.0872474
    14   6 C       55   1 H                                       1.0861352
    15   6 C       56   1 H                                       1.1014468
    16   6 C       57   1 H                                       1.0849039
    16   6 C       58   1 H                                       1.0856142
    16   6 C       59   1 H                                       1.0871381
    17   6 C       60   1 H                                       1.0885922
    17   6 C       61   1 H                                       1.0865049
    17   6 C       62   1 H                                       1.0849834
    19   6 C       63   1 H                                       1.0864794
    19   6 C       64   1 H                                       1.0889420
    19   6 C       65   1 H                                       1.0952655
    21   6 C       66   1 H                                       1.0786098
    22   6 C       67   1 H                                       1.0789742
    24   6 C       68   1 H                                       1.0798485
    25   6 C       69   1 H                                       1.0791218
    26   6 C       70   1 H                                       1.0792633
    27   6 C       71   1 H                                       1.0791128
    32   6 C       72   1 H                                       1.0773436 (min)
    33   6 C       73   1 H                                       1.0794723
    35   6 C       74   1 H                                       1.0798456
    36   6 C       75   1 H                                       1.0790313
    37   6 C       76   1 H                                       1.0792838
    38   6 C       77   1 H                                       1.0791956
    41   6 C       78   1 H                                       1.0890734
    41   6 C       79   1 H                                       1.0933561
    41   6 C       80   1 H                                       1.0905570

 * 5 distinct bonds (by element types)

   Z      Z             #   av. dist./Å        max./Å        min./Å
   1 H    6 C          39     1.0851031     1.1014468     1.0773436
   6 C    6 C          32     1.4108891     1.5303630     1.3648450
   6 C    7 N           6     1.4543715     1.4777347     1.4308696
   7 N   15 P           3     1.6639287     1.6693260     1.6581546
  15 P   34 Se          1     2.2694506     2.2694506     2.2694506


optimized geometry written to: xtbopt.xyz


           -------------------------------------------------
          | TOTAL ENERGY             -112.304445131894 Eh   |
          | GRADIENT NORM               0.000442630686 Eh/α |
          | HOMO-LUMO GAP               2.525295278661 eV   |
           -------------------------------------------------

------------------------------------------------------------------------
 * finished run on 2024/12/16 at 17:29:30.620     
------------------------------------------------------------------------
 total:
 * wall-time:     0 d,  0 h,  3 min, 30.582 sec
 *  cpu-time:     0 d,  0 h, 27 min, 35.321 sec
 * ratio c/w:     7.861 speedup
 SCF:
 * wall-time:     0 d,  0 h,  0 min,  1.683 sec
 *  cpu-time:     0 d,  0 h,  0 min, 13.376 sec
 * ratio c/w:     7.948 speedup
 ANC optimizer:
 * wall-time:     0 d,  0 h,  3 min, 28.576 sec
 *  cpu-time:     0 d,  0 h, 27 min, 20.376 sec
 * ratio c/w:     7.865 speedup

