80
 energy: -112.304445131894 gnorm: 0.000442630686 xtb: 6.7.1 (edcfbbe)
C            5.22011982377494       -1.74152641296082       -0.37782327896969
C            4.24961010543123       -2.84202331532971       -0.08715773959723
C            4.63063386277706       -3.87351725805469        0.76666870846222
C            3.80266150328306       -4.94896620010829        1.02759111439438
C            2.55537241855312       -5.02031930044923        0.43031406643432
C            2.13255748315642       -3.98999010738444       -0.38686285176244
C            2.96729590559777       -2.90692279147935       -0.62950464196608
S            2.31758768871930       -1.74077634702558       -1.81964848894727
Se           2.83412014879724        0.27290436068096       -1.16104290118115
P            0.82661030229800        1.14301848300877       -0.55837335359829
N            0.99179773728641        2.79204741347982       -0.50458932388949
C           -0.23564680021842        3.50704605387940       -0.09733457092022
C           -0.94233538770669        4.19331739103815       -1.26850207152971
C           -0.03550092239860        4.50817478494480        1.03638072232584
C            2.25946917860402        3.44189855537888       -0.86858335464285
C            2.10051957872024        4.69735749377301       -1.71590212954710
C            3.14747980691857        3.70177774755570        0.34609272631663
N            0.35779763819043        0.60611924027477        0.95113073037987
C            1.14284401213962        1.10402610211348        2.07271864011761
C           -0.02127292925495       -0.77340022607094        1.02324043292498
C            0.78225001909637       -1.71051811919883        1.69737831088296
C            0.36845858423755       -3.00517388144980        1.82165489713011
C           -0.81911864817583       -3.44833737369287        1.20494106354240
C           -1.22031156441901       -4.79934289317327        1.25717062974931
C           -2.34792082200638       -5.21832797869248        0.60894249947944
C           -3.11685888118830       -4.30332707706193       -0.12612100631095
C           -2.76524469598302       -2.98318727482904       -0.18036601125099
C           -1.61929612042346       -2.51412513882051        0.49708703099366
C           -1.23100733721811       -1.14490992921804        0.48148930746409
C           -2.13074399414603       -0.13635942297950       -0.10086488205010
C           -1.71772405410216        0.63706950413716       -1.16348847719678
C           -2.63658590726419        1.44889088585412       -1.85410589964605
C           -3.92846833078467        1.54612338810627       -1.42462241467644
C           -4.35912084500555        0.87345719333663       -0.26307193078376
C           -5.66910566527209        1.02284910717015        0.23707750679222
C           -6.06157665633102        0.36773407399872        1.37030656447824
C           -5.15577645754598       -0.45646949071005        2.05474540710865
C           -3.88188695615025       -0.63004504931752        1.58919907936407
C           -3.45046752760555        0.01681306621066        0.41134998767633
N           -0.35168149722737        0.56839247273416       -1.58372478982061
C           -0.08923039668809        0.61957370732755       -3.01708293575629
H            5.10055187509843       -1.35914306160514       -1.39454421731561
H            5.09051899734955       -0.90853710405240        0.31801442615113
H            6.23820179948231       -2.10610670140227       -0.26770471397423
H            5.61154671526440       -3.83306307986307        1.21639219074730
H            4.13834013170231       -5.73700059411736        1.68364765889050
H            1.91123334924288       -5.86862301614831        0.59907357510774
H            1.16119067101868       -4.02398659624747       -0.85611512195826
H           -0.89730612604228        2.70928186639164        0.27299286371586
H           -0.81340441618995        3.62787703990550       -2.18646537442920
H           -2.00594091733903        4.25999376415843       -1.05454569969073
H           -0.56706739150745        5.19901954756344       -1.42778328529472
H            0.57056366877513        5.35170277224999        0.72039529080228
H           -1.01134539455590        4.88803414898798        1.32885502949795
H            0.42120978505765        4.05657315832879        1.91225784351599
H            2.78676918615460        2.71210320523852       -1.50304245678372
H            1.68587813820264        5.52211280524316       -1.14593074366494
H            1.47792716578840        4.50884223605333       -2.58503890692279
H            3.08452243631205        4.99810370894745       -2.06684235381095
H            3.32037184220811        2.77697552971185        0.89370748409931
H            4.10960475853412        4.07871841497723        0.01034890984480
H            2.70936083263321        4.43428835030223        1.01592016031584
H            1.15089735861453        2.19009532897365        2.04397891878557
H            0.66630433078120        0.77685563307373        2.99557500648105
H            2.17951032478933        0.75072360271951        2.06239923866081
H            1.72162231953125       -1.40861193732073        2.13307466248572
H            0.96536110742223       -3.71139963876073        2.37765634166894
H           -0.61137503957792       -5.49627569558800        1.81354604764578
H           -2.64866792248855       -6.25395257757720        0.64814118483669
H           -3.99215763617771       -4.65010457027235       -0.65376331845157
H           -3.35939057840809       -2.28965151780686       -0.75524257302579
H           -2.32713583066010        1.98145407590755       -2.73800982003822
H           -4.63454039918174        2.15700696753908       -1.96641911272779
H           -6.35251405553054        1.67137696891935       -0.29058792568651
H           -7.06452331759350        0.48602114590169        1.75032555877423
H           -5.47100615757778       -0.95321211327041        2.95958254399329
H           -3.19001770226207       -1.25679423916268        2.13064655292241
H           -0.80397503758819       -0.03003609273067       -3.52030038676283
H           -0.16517564789360        1.62629374955954       -3.43681428803921
H            0.91375537626837        0.24201807808620       -3.21903756237014
