      -----------------------------------------------------------      
     |                   =====================                   |     
     |                           x T B                           |     
     |                   =====================                   |     
     |                         S. Grimme                         |     
     |          Mulliken Center for Theoretical Chemistry        |     
     |                    University of Bonn                     |     
      -----------------------------------------------------------      

   * xtb version 6.7.1 (edcfbbe) compiled by 'conda@3ef47c1a292c' on 2024-11-25

   xtb is free software: you can redistribute it and/or modify it under
   the terms of the GNU Lesser General Public License as published by
   the Free Software Foundation, either version 3 of the License, or
   (at your option) any later version.
   
   xtb is distributed in the hope that it will be useful,
   but WITHOUT ANY WARRANTY; without even the implied warranty of
   MERCHANTABILITY or FITNESS FOR A PARTICULAR PURPOSE.  See the
   GNU Lesser General Public License for more details.
   
   Cite this work as:
   * C. Bannwarth, E. Caldeweyher, S. Ehlert, A. Hansen, P. Pracht,
     J. Seibert, S. Spicher, S. Grimme, WIREs Comput. Mol. Sci., 2020, 11,
     e01493. DOI: 10.1002/wcms.1493
   
   for GFN2-xTB:
   * C. Bannwarth, S. Ehlert and S. Grimme., J. Chem. Theory Comput., 2019,
     15, 1652-1671. DOI: 10.1021/acs.jctc.8b01176
   for GFN1-xTB:
   * S. Grimme, C. Bannwarth, P. Shushkov, J. Chem. Theory Comput., 2017,
     13, 1989-2009. DOI: 10.1021/acs.jctc.7b00118
   for GFN0-xTB:
   * P. Pracht, E. Caldeweyher, S. Ehlert, S. Grimme, ChemRxiv, 2019, preprint.
     DOI: 10.26434/chemrxiv.8326202.v1
   for GFN-FF:
   * S. Spicher and S. Grimme, Angew. Chem. Int. Ed., 2020, 59, 15665-15673.
     DOI: 10.1002/anie.202004239
   
   for ALPB and GBSA implicit solvation:
   * S. Ehlert, M. Stahn, S. Spicher, S. Grimme, J. Chem. Theory Comput.,
     2021, 17, 4250-4261. DOI: 10.1021/acs.jctc.1c00471
   
   for ddCOSMO and CPCM-X implicit solvation:
   * M. Stahn, S. Ehlert, S. Grimme, J. Phys. Chem. A,
     2023, XX, XXXX-XXXX. DOI: 10.1021/acs.jpca.3c04382
   
   for DFT-D4:
   * E. Caldeweyher, C. Bannwarth and S. Grimme, J. Chem. Phys., 2017,
     147, 034112. DOI: 10.1063/1.4993215
   * E. Caldeweyher, S. Ehlert, A. Hansen, H. Neugebauer, S. Spicher,
     C. Bannwarth and S. Grimme, J. Chem. Phys., 2019, 150, 154122.
     DOI: 10.1063/1.5090222
   * E. Caldeweyher, J.-M. Mewes, S. Ehlert and S. Grimme, Phys. Chem. Chem. Phys.
     2020, 22, 8499-8512. DOI: 10.1039/D0CP00502A
   
   for sTDA-xTB:
   * S. Grimme and C. Bannwarth, J. Chem. Phys., 2016, 145, 054103.
     DOI: 10.1063/1.4959605
   
   in the mass-spec context:
   * V. Asgeirsson, C. Bauer and S. Grimme, Chem. Sci., 2017, 8, 4879.
     DOI: 10.1039/c7sc00601b
   * J. Koopman and S. Grimme, ACS Omega 2019, 4, 12, 15120-15133.
     DOI: 10.1021/acsomega.9b02011
   
   for metadynamics refer to:
   * S. Grimme, J. Chem. Theory Comput., 2019, 155, 2847-2862
     DOI: 10.1021/acs.jctc.9b00143
   
   for SPH calculations refer to:
   * S. Spicher and S. Grimme, J. Chem. Theory Comput., 2021, 17, 1701-1714
     DOI: 10.1021/acs.jctc.0c01306
   
   for ONIOM refer to:
   * C. Plett, A. Katbashev, S. Ehlert, S. Grimme, M. Bursch,
     Phys. Chem. Chem. Phys., 2023, 25, 17860-17868. DOI: 10.1039/D3CP02178E
   
   for DIPRO refer to:
   * J. Kohn, N. Gildemeister, S. Grimme, D. Fazzi, A. Hansen,
     J. Chem. Phys., 2023, just accepted.
   
   for PTB refer to:
   * S. Grimme, M. Mueller, A. Hansen, J. Chem. Phys., 2023, 158, 124111.
     DOI: 10.1063/5.0137838
   
   with help from (in alphabetical order)
   P. Atkinson, C. Bannwarth, F. Bohle, G. Brandenburg, E. Caldeweyher
   M. Checinski, S. Dohm, S. Ehlert, S. Ehrlich, I. Gerasimov, C. Hölzer
   A. Katbashev, J. Kohn, J. Koopman, C. Lavigne, S. Lehtola, F. März, M. Müller,
   F. Musil, H. Neugebauer, J. Pisarek, C. Plett, P. Pracht, F. Pultar,
   J. Seibert, P. Shushkov, S. Spicher, M. Stahn, M. Steiner, T. Strunk,
   J. Stückrath, T. Rose, and J. Unsleber
   
 * started run on 2024/12/16 at 16:14:30.565     
   ID    Z sym.   atoms
    1    6 C      1-3, 5-7, 11-17, 22-38, 40-44
    2    7 N      4, 21, 39
    3   15 P      8
    4   34 Se     9
    5   16 S      10
    6    9 F      18-20
    7    1 H      45-88

           -------------------------------------------------
          |                Calculation Setup                |
           -------------------------------------------------

          program call               : xtb --gfn2 --opt extreme -P 8 --charge 1 molecule.xyz
          hostname                   : node05
          coordinate file            : molecule.xyz
          omp threads                :                     8


           -------------------------------------------------
          |                 G F N 2 - x T B                 |
           -------------------------------------------------

        Reference                      10.1021/acs.jctc.8b01176
      * Hamiltonian:
        H0-scaling (s, p, d)           1.850000    2.230000    2.230000
        zeta-weighting                 0.500000
      * Dispersion:
        s8                             2.700000
        a1                             0.520000
        a2                             5.000000
        s9                             5.000000
      * Repulsion:
        kExp                           1.500000    1.000000
        rExp                           1.000000
      * Coulomb:
        alpha                          2.000000
        third order                    shell-resolved
        anisotropic                    true
        a3                             3.000000
        a5                             4.000000
        cn-shift                       1.200000
        cn-exp                         4.000000
        max-rad                        5.000000


          ...................................................
          :                      SETUP                      :
          :.................................................:
          :  # basis functions                 238          :
          :  # atomic orbitals                 235          :
          :  # shells                          135          :
          :  # electrons                       236          :
          :  max. iterations                   250          :
          :  Hamiltonian                  GFN2-xTB          :
          :  restarted?                      false          :
          :  GBSA solvation                  false          :
          :  PC potential                    false          :
          :  electronic temp.          300.0000000     K    :
          :  accuracy                    1.0000000          :
          :  -> integral cutoff          0.2500000E+02      :
          :  -> integral neglect         0.1000000E-07      :
          :  -> SCF convergence          0.1000000E-05 Eh   :
          :  -> wf. convergence          0.1000000E-03 e    :
          :  Broyden damping             0.4000000          :
          :  net charge                          1          :
          :  unpaired electrons                  0          :
          ...................................................

 iter      E             dE          RMSdq      gap      omega  full diag
   1   -130.2868743 -0.130287E+03  0.446E+00    2.56       0.0  T
   2   -130.5060856 -0.219211E+00  0.251E+00    2.47       1.0  T
   3   -130.5210132 -0.149276E-01  0.118E+00    2.01       1.0  T
   4   -130.5284364 -0.742321E-02  0.467E-01    1.75       1.0  T
   5   -130.5306468 -0.221040E-02  0.224E-01    1.74       1.0  T
   6   -130.5322180 -0.157122E-02  0.831E-02    1.77       1.0  T
   7   -130.5323283 -0.110314E-03  0.523E-02    1.76       1.0  T
   8   -130.5324008 -0.724779E-04  0.350E-02    1.77       1.0  T
   9   -130.5324046 -0.377878E-05  0.229E-02    1.76       1.0  T
  10   -130.5324198 -0.152165E-04  0.112E-02    1.77       1.0  T
  11   -130.5324207 -0.934139E-06  0.671E-03    1.77       1.6  T
  12   -130.5324211 -0.353827E-06  0.282E-03    1.77       3.8  T
  13   -130.5324214 -0.316643E-06  0.140E-03    1.77       7.6  T
  14   -130.5324214 -0.497875E-07  0.605E-04    1.77      17.6  T
  15   -130.5324214 -0.733291E-08  0.247E-04    1.77      43.2  T

   *** convergence criteria satisfied after 15 iterations ***

         #    Occupation            Energy/Eh            Energy/eV
      -------------------------------------------------------------
         1        2.0000           -0.9588258             -26.0910
       ...           ...                  ...                  ...
       112        2.0000           -0.4975000             -13.5377
       113        2.0000           -0.4917853             -13.3822
       114        2.0000           -0.4907590             -13.3542
       115        2.0000           -0.4747165             -12.9177
       116        2.0000           -0.4629812             -12.5984
       117        2.0000           -0.4621950             -12.5770
       118        2.0000           -0.4474629             -12.1761 (HOMO)
       119                         -0.3825263             -10.4091 (LUMO)
       120                         -0.3655555              -9.9473
       121                         -0.3450948              -9.3905
       122                         -0.3340819              -9.0908
       123                         -0.3232103              -8.7950
       ...                                ...                  ...
       235                          2.4885773              67.7176
      -------------------------------------------------------------
                  HL-Gap            0.0649366 Eh            1.7670 eV
             Fermi-level           -0.4149946 Eh          -11.2926 eV

 SCC (total)                   0 d,  0 h,  0 min,  2.158 sec
 SCC setup                      ...        0 min,  0.000 sec (  0.016%)
 Dispersion                     ...        0 min,  0.001 sec (  0.064%)
 classical contributions        ...        0 min,  0.000 sec (  0.007%)
 integral evaluation            ...        0 min,  0.006 sec (  0.299%)
 iterations                     ...        0 min,  2.030 sec ( 94.068%)
 molecular gradient             ...        0 min,  0.115 sec (  5.325%)
 printout                       ...        0 min,  0.005 sec (  0.220%)

         :::::::::::::::::::::::::::::::::::::::::::::::::::::
         ::                     SUMMARY                     ::
         :::::::::::::::::::::::::::::::::::::::::::::::::::::
         :: total energy            -128.763057443279 Eh    ::
         :: gradient norm              0.457440224499 Eh/a0 ::
         :: HOMO-LUMO gap              1.767015514329 eV    ::
         ::.................................................::
         :: SCC energy              -130.527089293911 Eh    ::
         :: -> isotropic ES            0.122955302638 Eh    ::
         :: -> anisotropic ES          0.007779029727 Eh    ::
         :: -> anisotropic XC          0.046000277949 Eh    ::
         :: -> dispersion             -0.129697692968 Eh    ::
         :: repulsion energy           1.764031850632 Eh    ::
         :: add. restraining           0.000000000000 Eh    ::
         :: total charge               1.000000000000 e     ::
         :::::::::::::::::::::::::::::::::::::::::::::::::::::

      ----------------------------------------------------------- 
     |                   =====================                   |
     |                        A N C O P T                        |
     |                   =====================                   |
     |               Approximate Normal Coordinate               |
     |                Rational Function Optimizer                |
      ----------------------------------------------------------- 
      ----------------------------------------------------------- 
     |                   =====================                   |
     |                        A N C O P T                        |
     |                   =====================                   |
     |               Approximate Normal Coordinate               |
     |                Rational Function Optimizer                |
      ----------------------------------------------------------- 

          ...................................................
          :                      SETUP                      :
          :.................................................:
          :   optimization level           extreme          :
          :   max. optcycles                  1760          :
          :   ANC micro-cycles                  20          :
          :   degrees of freedom               258          :
          :.................................................:
          :   RF solver                   davidson          :
          :   write xtbopt.log                true          :
          :   linear?                        false          :
          :   energy convergence         0.5000000E-07 Eh   :
          :   grad. convergence          0.5000000E-04 Eh/α :
          :   maxmium RF displ.          1.0000000          :
          :   Hlow (freq-cutoff)         0.1000000E-01      :
          :   Hmax (freq-cutoff)         5.0000000          :
          :   S6 in model hess.         20.0000000          :
          ...................................................

generating ANC from exact Hessian ...
Using Lindh-Hessian (1995)
 Shifting diagonal of input Hessian by    1.0158161868280663E-002
 Lowest  eigenvalues of input Hessian
    0.010000    0.000000    0.000000    0.000000    0.000000    0.000000
    0.000000    0.010255    0.010330    0.010382    0.010460    0.010605
    0.010758    0.010994    0.011538    0.011606    0.011757    0.011854
 Highest eigenvalues
    1.981578    2.019801    2.040123    2.042210    2.122403    2.150505


........................................................................
.............................. CYCLE    1 ..............................
........................................................................

 iter      E             dE          RMSdq      gap      omega  full diag
   1   -130.5324214 -0.130532E+03  0.939E-05    1.77       0.0  T
   2   -130.5324214 -0.120650E-09  0.614E-05    1.77     173.5  T
   3   -130.5324214 -0.471516E-10  0.382E-05    1.77     278.8  T
     SCC iter.                  ...        0 min,  0.221 sec
     gradient                   ...        0 min,  0.114 sec
 * total energy  :  -128.7630574 Eh     change       -0.6834000E-09 Eh
   gradient norm :     0.4574393 Eh/α   predicted     0.0000000E+00 (-100.00%)
   displ. norm   :     0.6356669 α      lambda       -0.2616795E+00
   maximum displ.:     0.1988159 α      in ANC's #177, #182, #169, ...

........................................................................
.............................. CYCLE    2 ..............................
........................................................................

 iter      E             dE          RMSdq      gap      omega  full diag
   1   -130.6829287 -0.130683E+03  0.782E-01    1.76       0.0  T
   2   -130.6853155 -0.238677E-02  0.427E-01    1.93       1.0  T
   3   -130.6847362  0.579332E-03  0.194E-01    2.08       1.0  T
   4   -130.6855886 -0.852403E-03  0.109E-01    2.05       1.0  T
   5   -130.6859332 -0.344606E-03  0.580E-02    2.08       1.0  T
   6   -130.6860513 -0.118110E-03  0.345E-02    2.06       1.0  T
   7   -130.6860567 -0.546459E-05  0.181E-02    2.07       1.0  T
   8   -130.6860633 -0.656760E-05  0.121E-02    2.06       1.0  T
   9   -130.6860647 -0.137139E-05  0.586E-03    2.06       1.8  T
  10   -130.6860655 -0.844937E-06  0.288E-03    2.06       3.7  T
  11   -130.6860656 -0.625749E-07  0.137E-03    2.06       7.8  T
  12   -130.6860656 -0.409076E-07  0.649E-04    2.06      16.4  T
  13   -130.6860656 -0.797112E-08  0.251E-04    2.06      42.5  T
     SCC iter.                  ...        0 min,  1.572 sec
     gradient                   ...        0 min,  0.114 sec
 * total energy  :  -128.9369335 Eh     change       -0.1738760E+00 Eh
   gradient norm :     0.2001309 Eh/α   predicted    -0.1837142E+00 (   5.66%)
   displ. norm   :     0.6306927 α      lambda       -0.1002396E+00
   maximum displ.:     0.1597509 α      in ANC's #103, #50, #78, ...

........................................................................
.............................. CYCLE    3 ..............................
........................................................................

 iter      E             dE          RMSdq      gap      omega  full diag
   1   -130.7753659 -0.130775E+03  0.381E-01    2.16       0.0  T
   2   -130.7759049 -0.539010E-03  0.225E-01    2.19       1.0  T
   3   -130.7754217  0.483178E-03  0.117E-01    2.25       1.0  T
   4   -130.7761539 -0.732179E-03  0.431E-02    2.21       1.0  T
   5   -130.7762028 -0.488700E-04  0.236E-02    2.23       1.0  T
   6   -130.7762202 -0.173716E-04  0.122E-02    2.22       1.0  T
   7   -130.7762205 -0.336688E-06  0.687E-03    2.22       1.6  T
   8   -130.7762220 -0.146991E-05  0.345E-03    2.22       3.1  T
   9   -130.7762220 -0.746800E-07  0.185E-03    2.22       5.8  T
  10   -130.7762221 -0.383980E-07  0.110E-03    2.22       9.7  T
  11   -130.7762221 -0.196279E-07  0.695E-04    2.22      15.3  T
  12   -130.7762221 -0.878171E-08  0.303E-04    2.22      35.2  T
     SCC iter.                  ...        0 min,  1.645 sec
     gradient                   ...        0 min,  0.123 sec
 * total energy  :  -129.0088169 Eh     change       -0.7188340E-01 Eh
   gradient norm :     0.0875576 Eh/α   predicted    -0.7005644E-01 (  -2.54%)
   displ. norm   :     0.6424957 α      lambda       -0.4310073E-01
   maximum displ.:     0.2026078 α      in ANC's #50, #45, #78, ...

........................................................................
.............................. CYCLE    4 ..............................
........................................................................

 iter      E             dE          RMSdq      gap      omega  full diag
   1   -130.8011164 -0.130801E+03  0.341E-01    2.19       0.0  T
   2   -130.8013128 -0.196375E-03  0.188E-01    2.20       1.0  T
   3   -130.8010655  0.247311E-03  0.805E-02    2.23       1.0  T
   4   -130.8013843 -0.318827E-03  0.309E-02    2.21       1.0  T
   5   -130.8014023 -0.179488E-04  0.168E-02    2.22       1.0  T
   6   -130.8014097 -0.745783E-05  0.928E-03    2.21       1.1  T
   7   -130.8014099 -0.124036E-06  0.600E-03    2.21       1.8  T
   8   -130.8014109 -0.101126E-05  0.223E-03    2.21       4.8  T
   9   -130.8014109 -0.445044E-07  0.138E-03    2.21       7.7  T
  10   -130.8014109 -0.576244E-08  0.815E-04    2.21      13.1  T
  11   -130.8014109 -0.124130E-07  0.492E-04    2.21      21.6  T
     SCC iter.                  ...        0 min,  0.920 sec
     gradient                   ...        0 min,  0.119 sec
 * total energy  :  -129.0418552 Eh     change       -0.3303828E-01 Eh
   gradient norm :     0.0557274 Eh/α   predicted    -0.3044640E-01 (  -7.85%)
   displ. norm   :     0.6472664 α      lambda       -0.2489324E-01
   maximum displ.:     0.2204075 α      in ANC's #50, #45, #49, ...

........................................................................
.............................. CYCLE    5 ..............................
........................................................................

 iter      E             dE          RMSdq      gap      omega  full diag
   1   -130.8046868 -0.130805E+03  0.297E-01    2.18       0.0  T
   2   -130.8047824 -0.956486E-04  0.163E-01    2.19       1.0  T
   3   -130.8047151  0.673259E-04  0.504E-02    2.20       1.0  T
   4   -130.8048014 -0.863008E-04  0.208E-02    2.19       1.0  T
   5   -130.8048098 -0.839830E-05  0.113E-02    2.19       1.0  T
   6   -130.8048119 -0.213142E-05  0.636E-03    2.19       1.7  T
   7   -130.8048121 -0.191524E-06  0.443E-03    2.19       2.4  T
   8   -130.8048126 -0.506956E-06  0.156E-03    2.19       6.8  T
   9   -130.8048127 -0.297602E-07  0.970E-04    2.19      11.0  T
  10   -130.8048127 -0.476064E-08  0.551E-04    2.19      19.4  T
     SCC iter.                  ...        0 min,  1.373 sec
     gradient                   ...        0 min,  0.119 sec
 * total energy  :  -129.0607621 Eh     change       -0.1890690E-01 Eh
   gradient norm :     0.0362528 Eh/α   predicted    -0.1766120E-01 (  -6.59%)
   displ. norm   :     0.6158919 α      lambda       -0.1314777E-01
   maximum displ.:     0.1892627 α      in ANC's #50, #45, #23, ...

........................................................................
.............................. CYCLE    6 ..............................
........................................................................

 iter      E             dE          RMSdq      gap      omega  full diag
   1   -130.8088022 -0.130809E+03  0.225E-01    2.20       0.0  T
   2   -130.8088425 -0.403130E-04  0.127E-01    2.19       1.0  T
   3   -130.8088139  0.285338E-04  0.311E-02    2.20       1.0  T
   4   -130.8088491 -0.351968E-04  0.138E-02    2.19       1.0  T
   5   -130.8088537 -0.460876E-05  0.740E-03    2.19       1.4  T
   6   -130.8088545 -0.764368E-06  0.398E-03    2.19       2.7  T
   7   -130.8088547 -0.155754E-06  0.288E-03    2.19       3.7  T
   8   -130.8088548 -0.863538E-07  0.141E-03    2.19       7.6  T
   9   -130.8088548 -0.510984E-07  0.640E-04    2.19      16.7  T
  10   -130.8088548 -0.244049E-08  0.390E-04    2.19      27.4  T
     SCC iter.                  ...        0 min,  1.105 sec
     gradient                   ...        0 min,  0.118 sec
 * total energy  :  -129.0706341 Eh     change       -0.9872003E-02 Eh
   gradient norm :     0.0273723 Eh/α   predicted    -0.9067513E-02 (  -8.15%)
   displ. norm   :     0.5949706 α      lambda       -0.7215600E-02
   maximum displ.:     0.1624810 α      in ANC's #23, #45, #7, ...

........................................................................
.............................. CYCLE    7 ..............................
........................................................................

 iter      E             dE          RMSdq      gap      omega  full diag
   1   -130.8142035 -0.130814E+03  0.150E-01    2.22       0.0  T
   2   -130.8142212 -0.176720E-04  0.857E-02    2.21       1.0  T
   3   -130.8142090  0.122416E-04  0.184E-02    2.21       1.0  T
   4   -130.8142233 -0.143430E-04  0.872E-03    2.20       1.2  T
   5   -130.8142259 -0.257534E-05  0.406E-03    2.20       2.6  T
   6   -130.8142261 -0.253028E-06  0.226E-03    2.20       4.7  T
   7   -130.8142262 -0.665183E-07  0.156E-03    2.20       6.8  T
   8   -130.8142262 -0.175379E-07  0.904E-04    2.20      11.8  T
   9   -130.8142262 -0.161129E-07  0.388E-04    2.20      27.4  T
     SCC iter.                  ...        0 min,  1.216 sec
     gradient                   ...        0 min,  0.116 sec
 * total energy  :  -129.0760402 Eh     change       -0.5406175E-02 Eh
   gradient norm :     0.0209413 Eh/α   predicted    -0.4884944E-02 (  -9.64%)
   displ. norm   :     0.6493927 α      lambda       -0.5457833E-02
   maximum displ.:     0.1949548 α      in ANC's #7, #13, #23, ...

........................................................................
.............................. CYCLE    8 ..............................
........................................................................

 iter      E             dE          RMSdq      gap      omega  full diag
   1   -130.8202926 -0.130820E+03  0.118E-01    2.24       0.0  T
   2   -130.8203118 -0.191210E-04  0.676E-02    2.23       1.0  T
   3   -130.8203047  0.709595E-05  0.149E-02    2.23       1.0  T
   4   -130.8203142 -0.958558E-05  0.681E-03    2.23       1.6  T
   5   -130.8203156 -0.139189E-05  0.254E-03    2.23       4.2  T
   6   -130.8203159 -0.214854E-06  0.123E-03    2.23       8.7  T
   7   -130.8203159 -0.387567E-07  0.700E-04    2.23      15.2  T
   8   -130.8203159 -0.739274E-08  0.457E-04    2.23      23.3  T
     SCC iter.                  ...        0 min,  0.722 sec
     gradient                   ...        0 min,  0.114 sec
 * total energy  :  -129.0793165 Eh     change       -0.3276239E-02 Eh
   gradient norm :     0.0307501 Eh/α   predicted    -0.3879747E-02 (  18.42%)
   displ. norm   :     0.5927696 α      lambda       -0.4680634E-02
   maximum displ.:     0.2139206 α      in ANC's #7, #13, #8, ...

........................................................................
.............................. CYCLE    9 ..............................
........................................................................

 iter      E             dE          RMSdq      gap      omega  full diag
   1   -130.8291191 -0.130829E+03  0.911E-02    2.26       0.0  T
   2   -130.8291339 -0.148247E-04  0.510E-02    2.26       1.0  T
   3   -130.8291316  0.234739E-05  0.117E-02    2.25       1.0  T
   4   -130.8291351 -0.354053E-05  0.580E-03    2.25       1.8  T
   5   -130.8291359 -0.799511E-06  0.253E-03    2.25       4.2  T
   6   -130.8291363 -0.328525E-06  0.963E-04    2.25      11.1  T
   7   -130.8291363 -0.278879E-07  0.481E-04    2.25      22.1  T
     SCC iter.                  ...        0 min,  0.640 sec
     gradient                   ...        0 min,  0.116 sec
 * total energy  :  -129.0826556 Eh     change       -0.3339150E-02 Eh
   gradient norm :     0.0154126 Eh/α   predicted    -0.3162651E-02 (  -5.29%)
   displ. norm   :     0.6310022 α      lambda       -0.3178149E-02
   maximum displ.:     0.2772833 α      in ANC's #7, #13, #8, ...

........................................................................
.............................. CYCLE   10 ..............................
........................................................................

 iter      E             dE          RMSdq      gap      omega  full diag
   1   -130.8359884 -0.130836E+03  0.942E-02    2.27       0.0  T
   2   -130.8359951 -0.675498E-05  0.514E-02    2.27       1.0  T
   3   -130.8359947  0.441597E-06  0.108E-02    2.27       1.0  T
   4   -130.8359960 -0.133733E-05  0.589E-03    2.27       1.8  T
   5   -130.8359964 -0.413143E-06  0.279E-03    2.27       3.8  T
   6   -130.8359967 -0.249421E-06  0.146E-03    2.27       7.3  T
   7   -130.8359967 -0.181942E-07  0.100E-03    2.27      10.6  T
   8   -130.8359967  0.315708E-09  0.530E-04    2.27      20.1  T
   9   -130.8359967 -0.743313E-08  0.262E-04    2.27      40.7  T
     SCC iter.                  ...        0 min,  0.989 sec
     gradient                   ...        0 min,  0.116 sec
 * total energy  :  -129.0854578 Eh     change       -0.2802217E-02 Eh
   gradient norm :     0.0155551 Eh/α   predicted    -0.2221788E-02 ( -20.71%)
   displ. norm   :     0.7579389 α      lambda       -0.3691473E-02
   maximum displ.:     0.3560956 α      in ANC's #7, #13, #8, ...

........................................................................
.............................. CYCLE   11 ..............................
........................................................................

 iter      E             dE          RMSdq      gap      omega  full diag
   1   -130.8428147 -0.130843E+03  0.126E-01    2.27       0.0  T
   2   -130.8428280 -0.133038E-04  0.697E-02    2.27       1.0  T
   3   -130.8428260  0.203756E-05  0.159E-02    2.27       1.0  T
   4   -130.8428296 -0.357231E-05  0.834E-03    2.27       1.3  T
   5   -130.8428308 -0.119901E-05  0.400E-03    2.27       2.7  T
   6   -130.8428312 -0.400508E-06  0.225E-03    2.27       4.7  T
   7   -130.8428312 -0.591942E-07  0.152E-03    2.27       7.0  T
   8   -130.8428312 -0.570992E-10  0.788E-04    2.27      13.5  T
   9   -130.8428312 -0.152309E-07  0.341E-04    2.27      31.2  T
     SCC iter.                  ...        0 min,  0.812 sec
     gradient                   ...        0 min,  0.116 sec
 * total energy  :  -129.0885678 Eh     change       -0.3110010E-02 Eh
   gradient norm :     0.0142696 Eh/α   predicted    -0.2906060E-02 (  -6.56%)
   displ. norm   :     0.7977704 α      lambda       -0.3188829E-02
   maximum displ.:     0.3923056 α      in ANC's #7, #13, #8, ...

........................................................................
.............................. CYCLE   12 ..............................
........................................................................

 iter      E             dE          RMSdq      gap      omega  full diag
   1   -130.8383128 -0.130838E+03  0.128E-01    2.26       0.0  T
   2   -130.8383300 -0.172404E-04  0.697E-02    2.26       1.0  T
   3   -130.8383290  0.107598E-05  0.173E-02    2.26       1.0  T
   4   -130.8383320 -0.300010E-05  0.799E-03    2.26       1.3  T
   5   -130.8383329 -0.910141E-06  0.365E-03    2.26       2.9  T
   6   -130.8383332 -0.361719E-06  0.190E-03    2.26       5.6  T
   7   -130.8383333 -0.731171E-07  0.131E-03    2.26       8.1  T
   8   -130.8383333 -0.381269E-08  0.781E-04    2.26      13.6  T
   9   -130.8383333 -0.165491E-07  0.329E-04    2.26      32.4  T
     SCC iter.                  ...        0 min,  1.058 sec
     gradient                   ...        0 min,  0.115 sec
 * total energy  :  -129.0910040 Eh     change       -0.2436107E-02 Eh
   gradient norm :     0.0160235 Eh/α   predicted    -0.2609162E-02 (   7.10%)
   displ. norm   :     0.7411801 α      lambda       -0.2772528E-02
   maximum displ.:     0.3786397 α      in ANC's #7, #13, #8, ...

........................................................................
.............................. CYCLE   13 ..............................
........................................................................

 iter      E             dE          RMSdq      gap      omega  full diag
   1   -130.8427972 -0.130843E+03  0.118E-01    2.23       0.0  T
   2   -130.8428108 -0.135526E-04  0.624E-02    2.23       1.0  T
   3   -130.8428088  0.196759E-05  0.169E-02    2.24       1.0  T
   4   -130.8428118 -0.298143E-05  0.763E-03    2.23       1.4  T
   5   -130.8428130 -0.120425E-05  0.317E-03    2.23       3.4  T
   6   -130.8428136 -0.577382E-06  0.149E-03    2.23       7.2  T
   7   -130.8428137 -0.692934E-07  0.979E-04    2.23      10.9  T
   8   -130.8428137 -0.881022E-08  0.597E-04    2.23      17.8  T
     SCC iter.                  ...        0 min,  1.052 sec
     gradient                   ...        0 min,  0.121 sec
 * total energy  :  -129.0932607 Eh     change       -0.2256756E-02 Eh
   gradient norm :     0.0134233 Eh/α   predicted    -0.2147808E-02 (  -4.83%)
   displ. norm   :     0.7492775 α      lambda       -0.2392634E-02
   maximum displ.:     0.4041770 α      in ANC's #7, #13, #5, ...

........................................................................
.............................. CYCLE   14 ..............................
........................................................................

 iter      E             dE          RMSdq      gap      omega  full diag
   1   -130.8453411 -0.130845E+03  0.117E-01    2.21       0.0  T
   2   -130.8453501 -0.904979E-05  0.600E-02    2.21       1.0  T
   3   -130.8453502 -0.111294E-06  0.148E-02    2.21       1.0  T
   4   -130.8453510 -0.777561E-06  0.655E-03    2.21       1.6  T
   5   -130.8453519 -0.856556E-06  0.213E-03    2.21       5.0  T
   6   -130.8453521 -0.244778E-06  0.105E-03    2.21      10.1  T
   7   -130.8453521 -0.396912E-07  0.634E-04    2.21      16.8  T
   8   -130.8453522 -0.576770E-08  0.351E-04    2.21      30.4  T
     SCC iter.                  ...        0 min,  1.249 sec
     gradient                   ...        0 min,  0.198 sec
 * total energy  :  -129.0953237 Eh     change       -0.2062957E-02 Eh
   gradient norm :     0.0156032 Eh/α   predicted    -0.1867957E-02 (  -9.45%)
   displ. norm   :     0.7870331 α      lambda       -0.2732713E-02
   maximum displ.:     0.4300364 α      in ANC's #7, #13, #5, ...

........................................................................
.............................. CYCLE   15 ..............................
........................................................................

 iter      E             dE          RMSdq      gap      omega  full diag
   1   -130.8581778 -0.130858E+03  0.135E-01    2.19       0.0  T
   2   -130.8581935 -0.157439E-04  0.680E-02    2.18       1.0  T
   3   -130.8581923  0.121554E-05  0.169E-02    2.19       1.0  T
   4   -130.8581932 -0.836844E-06  0.815E-03    2.19       1.3  T
   5   -130.8581959 -0.276720E-05  0.280E-03    2.19       3.8  T
   6   -130.8581966 -0.705518E-06  0.942E-04    2.19      11.3  T
   7   -130.8581967 -0.247485E-07  0.547E-04    2.19      19.5  T
     SCC iter.                  ...        0 min,  0.839 sec
     gradient                   ...        0 min,  0.186 sec
 * total energy  :  -129.0973678 Eh     change       -0.2044116E-02 Eh
   gradient norm :     0.0151192 Eh/α   predicted    -0.2212709E-02 (   8.25%)
   displ. norm   :     0.7795960 α      lambda       -0.2375412E-02
   maximum displ.:     0.4096828 α      in ANC's #7, #13, #5, ...

........................................................................
.............................. CYCLE   16 ..............................
........................................................................

 iter      E             dE          RMSdq      gap      omega  full diag
   1   -130.8485856 -0.130849E+03  0.125E-01    2.18       0.0  T
   2   -130.8485999 -0.142554E-04  0.631E-02    2.18       1.0  T
   3   -130.8485996  0.293452E-06  0.158E-02    2.18       1.0  T
   4   -130.8486002 -0.666536E-06  0.755E-03    2.18       1.4  T
   5   -130.8486018 -0.156608E-05  0.293E-03    2.18       3.6  T
   6   -130.8486025 -0.678095E-06  0.861E-04    2.18      12.4  T
   7   -130.8486025 -0.230882E-07  0.467E-04    2.18      22.8  T
     SCC iter.                  ...        0 min,  0.865 sec
     gradient                   ...        0 min,  0.116 sec
 * total energy  :  -129.0992340 Eh     change       -0.1866198E-02 Eh
   gradient norm :     0.0153433 Eh/α   predicted    -0.1909561E-02 (   2.32%)
   displ. norm   :     0.7304451 α      lambda       -0.2514480E-02
   maximum displ.:     0.3886765 α      in ANC's #7, #13, #5, ...

........................................................................
.............................. CYCLE   17 ..............................
........................................................................

 iter      E             dE          RMSdq      gap      omega  full diag
   1   -130.8563272 -0.130856E+03  0.133E-01    2.18       0.0  T
   2   -130.8563585 -0.313232E-04  0.671E-02    2.19       1.0  T
   3   -130.8563557  0.288400E-05  0.174E-02    2.18       1.0  T
   4   -130.8563563 -0.651441E-06  0.964E-03    2.19       1.1  T
   5   -130.8563622 -0.585311E-05  0.348E-03    2.19       3.1  T
   6   -130.8563628 -0.678845E-06  0.974E-04    2.19      10.9  T
   7   -130.8563629 -0.297712E-07  0.528E-04    2.19      20.2  T
     SCC iter.                  ...        0 min,  0.780 sec
     gradient                   ...        0 min,  0.150 sec
 * total energy  :  -129.1004336 Eh     change       -0.1199605E-02 Eh
   gradient norm :     0.0267308 Eh/α   predicted    -0.1928044E-02 (  60.72%)
   displ. norm   :     0.6070386 α      lambda       -0.2361231E-02
   maximum displ.:     0.3133775 α      in ANC's #7, #13, #5, ...

........................................................................
.............................. CYCLE   18 ..............................
........................................................................

 iter      E             dE          RMSdq      gap      omega  full diag
   1   -130.8509894 -0.130851E+03  0.101E-01    2.19       0.0  T
   2   -130.8510045 -0.151728E-04  0.525E-02    2.19       1.0  T
   3   -130.8510038  0.782223E-06  0.139E-02    2.19       1.0  T
   4   -130.8510057 -0.195784E-05  0.684E-03    2.19       1.6  T
   5   -130.8510067 -0.101342E-05  0.271E-03    2.19       3.9  T
   6   -130.8510070 -0.298139E-06  0.114E-03    2.19       9.4  T
   7   -130.8510071 -0.206966E-07  0.753E-04    2.19      14.2  T
   8   -130.8510071  0.726715E-09  0.481E-04    2.19      22.2  T
     SCC iter.                  ...        0 min,  0.696 sec
     gradient                   ...        0 min,  0.115 sec
 * total energy  :  -129.1021590 Eh     change       -0.1725375E-02 Eh
   gradient norm :     0.0136430 Eh/α   predicted    -0.1615670E-02 (  -6.36%)
   displ. norm   :     0.6715665 α      lambda       -0.1649500E-02
   maximum displ.:     0.3558506 α      in ANC's #7, #13, #1, ...

........................................................................
.............................. CYCLE   19 ..............................
........................................................................

 iter      E             dE          RMSdq      gap      omega  full diag
   1   -130.8526705 -0.130853E+03  0.110E-01    2.21       0.0  T
   2   -130.8526837 -0.132147E-04  0.546E-02    2.21       1.0  T
   3   -130.8526826  0.115429E-05  0.147E-02    2.21       1.0  T
   4   -130.8526848 -0.220403E-05  0.750E-03    2.21       1.4  T
   5   -130.8526862 -0.140482E-05  0.240E-03    2.21       4.4  T
   6   -130.8526864 -0.187422E-06  0.976E-04    2.21      10.9  T
   7   -130.8526864 -0.985500E-08  0.689E-04    2.21      15.5  T
     SCC iter.                  ...        0 min,  0.737 sec
     gradient                   ...        0 min,  0.132 sec
 * total energy  :  -129.1033653 Eh     change       -0.1206292E-02 Eh
   gradient norm :     0.0137558 Eh/α   predicted    -0.1196716E-02 (  -0.79%)
   displ. norm   :     0.6791227 α      lambda       -0.1757928E-02
   maximum displ.:     0.3335231 α      in ANC's #7, #13, #1, ...

........................................................................
.............................. CYCLE   20 ..............................
........................................................................

 iter      E             dE          RMSdq      gap      omega  full diag
   1   -130.8600886 -0.130860E+03  0.119E-01    2.24       0.0  T
   2   -130.8601104 -0.218466E-04  0.593E-02    2.24       1.0  T
   3   -130.8601097  0.696701E-06  0.160E-02    2.24       1.0  T
   4   -130.8601122 -0.244466E-05  0.830E-03    2.24       1.3  T
   5   -130.8601140 -0.180165E-05  0.281E-03    2.24       3.8  T
   6   -130.8601142 -0.239193E-06  0.113E-03    2.24       9.4  T
   7   -130.8601142 -0.600977E-08  0.781E-04    2.24      13.6  T
   8   -130.8601142 -0.226939E-08  0.459E-04    2.24      23.2  T
     SCC iter.                  ...        0 min,  0.977 sec
     gradient                   ...        0 min,  0.123 sec
 * total energy  :  -129.1041643 Eh     change       -0.7990730E-03 Eh
   gradient norm :     0.0219585 Eh/α   predicted    -0.1284354E-02 (  60.73%)
   displ. norm   :     0.5258137 α      lambda       -0.1781357E-02
   maximum displ.:     0.2800877 α      in ANC's #7, #13, #1, ...
 * RMSD in coord.:     1.0816765 α      energy gain  -0.3411069E+00 Eh

generating ANC from exact Hessian ...
Using Lindh-Hessian (1995)
 Shifting diagonal of input Hessian by    1.0145906844256296E-002
 Lowest  eigenvalues of input Hessian
    0.010000    0.000000    0.000000    0.000000    0.000000    0.000000
    0.000000    0.010201    0.010305    0.010380    0.010457    0.010497
    0.010566    0.010860    0.011123    0.011275    0.011327    0.011386
 Highest eigenvalues
    1.981854    2.002891    2.007907    2.012301    2.045986    2.071952


........................................................................
.............................. CYCLE   21 ..............................
........................................................................

 iter      E             dE          RMSdq      gap      omega  full diag
   1   -130.8599379 -0.130860E+03  0.930E-02    2.24       0.0  T
   2   -130.8599524 -0.144462E-04  0.468E-02    2.25       1.0  T
   3   -130.8599519  0.441824E-06  0.120E-02    2.25       1.0  T
   4   -130.8599525 -0.504356E-06  0.630E-03    2.25       1.7  T
   5   -130.8599541 -0.169024E-05  0.240E-03    2.25       4.4  T
   6   -130.8599545 -0.360208E-06  0.791E-04    2.25      13.5  T
   7   -130.8599545 -0.197208E-07  0.487E-04    2.25      21.9  T
     SCC iter.                  ...        0 min,  0.614 sec
     gradient                   ...        0 min,  0.159 sec
 * total energy  :  -129.1052099 Eh     change       -0.1045540E-02 Eh
   gradient norm :     0.0145973 Eh/α   predicted     0.0000000E+00 (-100.00%)
   displ. norm   :     0.1559613 α      lambda       -0.6674501E-03
   maximum displ.:     0.0733190 α      in ANC's #12, #7, #18, ...

........................................................................
.............................. CYCLE   22 ..............................
........................................................................

 iter      E             dE          RMSdq      gap      omega  full diag
   1   -130.8620702 -0.130862E+03  0.491E-02    2.27       0.0  T
   2   -130.8620733 -0.307883E-05  0.232E-02    2.27       1.0  T
   3   -130.8620730  0.342165E-06  0.595E-03    2.27       1.8  T
   4   -130.8620736 -0.624571E-06  0.333E-03    2.27       3.2  T
   5   -130.8620739 -0.303705E-06  0.113E-03    2.27       9.4  T
   6   -130.8620739 -0.526234E-07  0.299E-04    2.27      35.7  T
   7   -130.8620739 -0.155137E-08  0.157E-04    2.27      68.0  T
     SCC iter.                  ...        0 min,  0.815 sec
     gradient                   ...        0 min,  0.187 sec
 * total energy  :  -129.1057293 Eh     change       -0.5194727E-03 Eh
   gradient norm :     0.0058420 Eh/α   predicted    -0.3418456E-03 ( -34.19%)
   displ. norm   :     0.3642669 α      lambda       -0.8327321E-03
   maximum displ.:     0.1823782 α      in ANC's #12, #7, #4, ...

........................................................................
.............................. CYCLE   23 ..............................
........................................................................

 iter      E             dE          RMSdq      gap      omega  full diag
   1   -130.8635124 -0.130864E+03  0.689E-02    2.26       0.0  T
   2   -130.8635174 -0.494405E-05  0.339E-02    2.26       1.0  T
   3   -130.8635164  0.959177E-06  0.879E-03    2.26       1.2  T
   4   -130.8635176 -0.116747E-05  0.494E-03    2.27       2.2  T
   5   -130.8635186 -0.103702E-05  0.110E-03    2.26       9.7  T
   6   -130.8635187 -0.343509E-07  0.444E-04    2.27      24.0  T
   7   -130.8635187 -0.522652E-08  0.241E-04    2.27      44.3  T
     SCC iter.                  ...        0 min,  0.900 sec
     gradient                   ...        0 min,  0.186 sec
 * total energy  :  -129.1063368 Eh     change       -0.6074441E-03 Eh
   gradient norm :     0.0074716 Eh/α   predicted    -0.4716450E-03 ( -22.36%)
   displ. norm   :     0.4591901 α      lambda       -0.6866112E-03
   maximum displ.:     0.2268002 α      in ANC's #12, #4, #7, ...

........................................................................
.............................. CYCLE   24 ..............................
........................................................................

 iter      E             dE          RMSdq      gap      omega  full diag
   1   -130.8630884 -0.130863E+03  0.847E-02    2.28       0.0  T
   2   -130.8630946 -0.619452E-05  0.416E-02    2.28       1.0  T
   3   -130.8630931  0.155141E-05  0.109E-02    2.28       1.0  T
   4   -130.8630952 -0.211384E-05  0.630E-03    2.28       1.7  T
   5   -130.8630966 -0.139247E-05  0.167E-03    2.28       6.4  T
   6   -130.8630966 -0.586625E-07  0.101E-03    2.28      10.5  T
   7   -130.8630967 -0.128589E-07  0.626E-04    2.28      17.0  T
   8   -130.8630967 -0.720144E-08  0.293E-04    2.28      36.4  T
     SCC iter.                  ...        0 min,  0.972 sec
     gradient                   ...        0 min,  0.147 sec
 * total energy  :  -129.1069117 Eh     change       -0.5749553E-03 Eh
   gradient norm :     0.0123517 Eh/α   predicted    -0.4156936E-03 ( -27.70%)
   displ. norm   :     0.6393968 α      lambda       -0.9327884E-03
   maximum displ.:     0.3065983 α      in ANC's #12, #7, #4, ...

........................................................................
.............................. CYCLE   25 ..............................
........................................................................

 iter      E             dE          RMSdq      gap      omega  full diag
   1   -130.8605270 -0.130861E+03  0.103E-01    2.27       0.0  T
   2   -130.8605354 -0.849268E-05  0.519E-02    2.27       1.0  T
   3   -130.8605329  0.259281E-05  0.132E-02    2.27       1.0  T
   4   -130.8605357 -0.285283E-05  0.744E-03    2.28       1.4  T
   5   -130.8605383 -0.255677E-05  0.152E-03    2.27       7.0  T
   6   -130.8605384 -0.127315E-06  0.729E-04    2.27      14.6  T
   7   -130.8605384 -0.230103E-07  0.339E-04    2.27      31.4  T
     SCC iter.                  ...        0 min,  0.628 sec
     gradient                   ...        0 min,  0.147 sec
 * total energy  :  -129.1077121 Eh     change       -0.8003739E-03 Eh
   gradient norm :     0.0132645 Eh/α   predicted    -0.6570727E-03 ( -17.90%)
   displ. norm   :     0.6844972 α      lambda       -0.1063157E-02
   maximum displ.:     0.3174214 α      in ANC's #12, #5, #4, ...

........................................................................
.............................. CYCLE   26 ..............................
........................................................................

 iter      E             dE          RMSdq      gap      omega  full diag
   1   -130.8594545 -0.130859E+03  0.109E-01    2.27       0.0  T
   2   -130.8594650 -0.105157E-04  0.568E-02    2.28       1.0  T
   3   -130.8594619  0.313694E-05  0.147E-02    2.27       1.0  T
   4   -130.8594660 -0.407028E-05  0.835E-03    2.28       1.3  T
   5   -130.8594683 -0.231555E-05  0.298E-03    2.28       3.6  T
   6   -130.8594686 -0.337826E-06  0.159E-03    2.28       6.7  T
   7   -130.8594686 -0.173038E-07  0.111E-03    2.28       9.6  T
   8   -130.8594686 -0.238000E-07  0.471E-04    2.28      22.6  T
   9   -130.8594687 -0.196792E-08  0.235E-04    2.28      45.3  T
     SCC iter.                  ...        0 min,  0.895 sec
     gradient                   ...        0 min,  0.117 sec
 * total energy  :  -129.1085639 Eh     change       -0.8517617E-03 Eh
   gradient norm :     0.0118223 Eh/α   predicted    -0.7806504E-03 (  -8.35%)
   displ. norm   :     0.5799110 α      lambda       -0.9161653E-03
   maximum displ.:     0.2557035 α      in ANC's #12, #5, #4, ...

........................................................................
.............................. CYCLE   27 ..............................
........................................................................

 iter      E             dE          RMSdq      gap      omega  full diag
   1   -130.8621467 -0.130862E+03  0.885E-02    2.26       0.0  T
   2   -130.8621528 -0.607822E-05  0.460E-02    2.27       1.0  T
   3   -130.8621515  0.124205E-05  0.109E-02    2.27       1.0  T
   4   -130.8621527 -0.116776E-05  0.594E-03    2.27       1.8  T
   5   -130.8621544 -0.164628E-05  0.146E-03    2.27       7.3  T
   6   -130.8621545 -0.938515E-07  0.633E-04    2.27      16.9  T
   7   -130.8621545 -0.216011E-07  0.334E-04    2.27      31.9  T
     SCC iter.                  ...        0 min,  1.100 sec
     gradient                   ...        0 min,  0.168 sec
 * total energy  :  -129.1092615 Eh     change       -0.6976358E-03 Eh
   gradient norm :     0.0113795 Eh/α   predicted    -0.6121378E-03 ( -12.26%)
   displ. norm   :     0.5676037 α      lambda       -0.7202585E-03
   maximum displ.:     0.2311124 α      in ANC's #12, #5, #4, ...

........................................................................
.............................. CYCLE   28 ..............................
........................................................................

 iter      E             dE          RMSdq      gap      omega  full diag
   1   -130.8638657 -0.130864E+03  0.877E-02    2.26       0.0  T
   2   -130.8638713 -0.561003E-05  0.460E-02    2.26       1.0  T
   3   -130.8638706  0.676987E-06  0.109E-02    2.26       1.0  T
   4   -130.8638714 -0.815113E-06  0.624E-03    2.26       1.7  T
   5   -130.8638729 -0.147616E-05  0.224E-03    2.26       4.8  T
   6   -130.8638730 -0.108600E-06  0.128E-03    2.26       8.3  T
   7   -130.8638730  0.643183E-09  0.905E-04    2.26      11.8  T
   8   -130.8638730 -0.234690E-07  0.382E-04    2.26      27.9  T
     SCC iter.                  ...        0 min,  0.714 sec
     gradient                   ...        0 min,  0.116 sec
 * total energy  :  -129.1098524 Eh     change       -0.5908591E-03 Eh
   gradient norm :     0.0117610 Eh/α   predicted    -0.4761558E-03 ( -19.41%)
   displ. norm   :     0.5747283 α      lambda       -0.7757049E-03
   maximum displ.:     0.2329858 α      in ANC's #5, #4, #12, ...

........................................................................
.............................. CYCLE   29 ..............................
........................................................................

 iter      E             dE          RMSdq      gap      omega  full diag
   1   -130.8681926 -0.130868E+03  0.868E-02    2.27       0.0  T
   2   -130.8681985 -0.590503E-05  0.457E-02    2.27       1.0  T
   3   -130.8681981  0.453404E-06  0.103E-02    2.27       1.0  T
   4   -130.8681990 -0.898975E-06  0.546E-03    2.27       2.0  T
   5   -130.8681999 -0.914349E-06  0.158E-03    2.27       6.8  T
   6   -130.8682000 -0.925984E-07  0.486E-04    2.27      21.9  T
   7   -130.8682000 -0.223494E-08  0.302E-04    2.27      35.3  T
     SCC iter.                  ...        0 min,  0.744 sec
     gradient                   ...        0 min,  0.116 sec
 * total energy  :  -129.1104608 Eh     change       -0.6084375E-03 Eh
   gradient norm :     0.0088187 Eh/α   predicted    -0.5159656E-03 ( -15.20%)
   displ. norm   :     0.6983586 α      lambda       -0.7023463E-03
   maximum displ.:     0.2841243 α      in ANC's #5, #4, #12, ...

........................................................................
.............................. CYCLE   30 ..............................
........................................................................

 iter      E             dE          RMSdq      gap      omega  full diag
   1   -130.8632380 -0.130863E+03  0.123E-01    2.26       0.0  T
   2   -130.8632500 -0.119857E-04  0.611E-02    2.27       1.0  T
   3   -130.8632501 -0.834254E-07  0.144E-02    2.27       1.0  T
   4   -130.8632499  0.171486E-06  0.828E-03    2.27       1.3  T
   5   -130.8632530 -0.307976E-05  0.209E-03    2.27       5.1  T
   6   -130.8632531 -0.133958E-06  0.125E-03    2.27       8.5  T
   7   -130.8632532 -0.171397E-07  0.879E-04    2.27      12.1  T
   8   -130.8632532 -0.154064E-07  0.543E-04    2.27      19.6  T
     SCC iter.                  ...        0 min,  1.013 sec
     gradient                   ...        0 min,  0.121 sec
 * total energy  :  -129.1109513 Eh     change       -0.4904625E-03 Eh
   gradient norm :     0.0091333 Eh/α   predicted    -0.5224433E-03 (   6.52%)
   displ. norm   :     0.4809834 α      lambda       -0.6768504E-03
   maximum displ.:     0.2226717 α      in ANC's #5, #4, #9, ...

........................................................................
.............................. CYCLE   31 ..............................
........................................................................

 iter      E             dE          RMSdq      gap      omega  full diag
   1   -130.8727549 -0.130873E+03  0.808E-02    2.28       0.0  T
   2   -130.8727644 -0.947983E-05  0.434E-02    2.28       1.0  T
   3   -130.8727615  0.283672E-05  0.125E-02    2.28       1.0  T
   4   -130.8727654 -0.388480E-05  0.618E-03    2.28       1.7  T
   5   -130.8727662 -0.823374E-06  0.270E-03    2.28       3.9  T
   6   -130.8727665 -0.249511E-06  0.129E-03    2.28       8.3  T
   7   -130.8727665  0.533390E-08  0.908E-04    2.28      11.7  T
   8   -130.8727665 -0.187412E-07  0.410E-04    2.28      26.0  T
     SCC iter.                  ...        0 min,  0.630 sec
     gradient                   ...        0 min,  0.179 sec
 * total energy  :  -129.1112822 Eh     change       -0.3309391E-03 Eh
   gradient norm :     0.0099745 Eh/α   predicted    -0.4167193E-03 (  25.92%)
   displ. norm   :     0.4839760 α      lambda       -0.4324600E-03
   maximum displ.:     0.2122295 α      in ANC's #5, #4, #12, ...

........................................................................
.............................. CYCLE   32 ..............................
........................................................................

 iter      E             dE          RMSdq      gap      omega  full diag
   1   -130.8666831 -0.130867E+03  0.827E-02    2.31       0.0  T
   2   -130.8666905 -0.740428E-05  0.430E-02    2.31       1.0  T
   3   -130.8666907 -0.245281E-06  0.101E-02    2.30       1.1  T
   4   -130.8666912 -0.501258E-06  0.520E-03    2.30       2.1  T
   5   -130.8666915 -0.242907E-06  0.228E-03    2.30       4.7  T
   6   -130.8666917 -0.217146E-06  0.756E-04    2.30      14.1  T
   7   -130.8666917 -0.114154E-07  0.485E-04    2.30      22.0  T
     SCC iter.                  ...        0 min,  0.629 sec
     gradient                   ...        0 min,  0.114 sec
 * total energy  :  -129.1115289 Eh     change       -0.2467242E-03 Eh
   gradient norm :     0.0075254 Eh/α   predicted    -0.2668974E-03 (   8.18%)
   displ. norm   :     0.2180304 α      lambda       -0.2357149E-03
   maximum displ.:     0.1007851 α      in ANC's #5, #4, #2, ...

........................................................................
.............................. CYCLE   33 ..............................
........................................................................

 iter      E             dE          RMSdq      gap      omega  full diag
   1   -130.8675619 -0.130868E+03  0.423E-02    2.28       0.0  T
   2   -130.8675635 -0.152786E-05  0.218E-02    2.28       1.0  T
   3   -130.8675631  0.318405E-06  0.574E-03    2.28       1.9  T
   4   -130.8675634 -0.287400E-06  0.311E-03    2.28       3.4  T
   5   -130.8675638 -0.383317E-06  0.107E-03    2.28      10.0  T
   6   -130.8675639 -0.420619E-07  0.481E-04    2.28      22.1  T
   7   -130.8675639 -0.437376E-08  0.277E-04    2.28      38.4  T
     SCC iter.                  ...        0 min,  0.614 sec
     gradient                   ...        0 min,  0.115 sec
 * total energy  :  -129.1117018 Eh     change       -0.1728792E-03 Eh
   gradient norm :     0.0042842 Eh/α   predicted    -0.1234645E-03 ( -28.58%)
   displ. norm   :     0.2877110 α      lambda       -0.2655249E-03
   maximum displ.:     0.1245554 α      in ANC's #5, #2, #4, ...

........................................................................
.............................. CYCLE   34 ..............................
........................................................................

 iter      E             dE          RMSdq      gap      omega  full diag
   1   -130.8722069 -0.130872E+03  0.465E-02    2.29       0.0  T
   2   -130.8722090 -0.211643E-05  0.260E-02    2.29       1.0  T
   3   -130.8722079  0.105644E-05  0.654E-03    2.29       1.6  T
   4   -130.8722092 -0.123015E-05  0.297E-03    2.29       3.6  T
   5   -130.8722095 -0.304434E-06  0.132E-03    2.29       8.1  T
   6   -130.8722095 -0.822675E-07  0.422E-04    2.29      25.2  T
   7   -130.8722095 -0.162851E-08  0.273E-04    2.29      39.0  T
     SCC iter.                  ...        0 min,  0.956 sec
     gradient                   ...        0 min,  0.131 sec
 * total energy  :  -129.1118634 Eh     change       -0.1615420E-03 Eh
   gradient norm :     0.0048892 Eh/α   predicted    -0.1437545E-03 ( -11.01%)
   displ. norm   :     0.3035858 α      lambda       -0.1266680E-03
   maximum displ.:     0.1490494 α      in ANC's #5, #4, #2, ...

........................................................................
.............................. CYCLE   35 ..............................
........................................................................

 iter      E             dE          RMSdq      gap      omega  full diag
   1   -130.8703916 -0.130870E+03  0.452E-02    2.29       0.0  T
   2   -130.8703932 -0.152242E-05  0.250E-02    2.30       1.0  T
   3   -130.8703928  0.392016E-06  0.546E-03    2.30       2.0  T
   4   -130.8703933 -0.559133E-06  0.258E-03    2.30       4.1  T
   5   -130.8703935 -0.170957E-06  0.871E-04    2.30      12.2  T
   6   -130.8703935 -0.372598E-07  0.340E-04    2.30      31.3  T
     SCC iter.                  ...        0 min,  0.712 sec
     gradient                   ...        0 min,  0.119 sec
 * total energy  :  -129.1119463 Eh     change       -0.8293695E-04 Eh
   gradient norm :     0.0046404 Eh/α   predicted    -0.6917620E-04 ( -16.59%)
   displ. norm   :     0.1911037 α      lambda       -0.1024978E-03
   maximum displ.:     0.0812185 α      in ANC's #5, #2, #4, ...

........................................................................
.............................. CYCLE   36 ..............................
........................................................................

 iter      E             dE          RMSdq      gap      omega  full diag
   1   -130.8708376 -0.130871E+03  0.284E-02    2.31       0.0  T
   2   -130.8708383 -0.665171E-06  0.158E-02    2.31       1.0  T
   3   -130.8708383  0.268987E-07  0.324E-03    2.31       3.3  T
   4   -130.8708384 -0.108295E-06  0.142E-03    2.31       7.5  T
   5   -130.8708384 -0.254591E-07  0.625E-04    2.31      17.1  T
   6   -130.8708384 -0.237428E-07  0.242E-04    2.31      44.0  T
     SCC iter.                  ...        0 min,  0.540 sec
     gradient                   ...        0 min,  0.146 sec
 * total energy  :  -129.1120200 Eh     change       -0.7371509E-04 Eh
   gradient norm :     0.0038898 Eh/α   predicted    -0.5312144E-04 ( -27.94%)
   displ. norm   :     0.2218799 α      lambda       -0.1002398E-03
   maximum displ.:     0.1011741 α      in ANC's #5, #4, #2, ...

........................................................................
.............................. CYCLE   37 ..............................
........................................................................

 iter      E             dE          RMSdq      gap      omega  full diag
   1   -130.8705726 -0.130871E+03  0.340E-02    2.32       0.0  T
   2   -130.8705735 -0.897128E-06  0.183E-02    2.32       1.0  T
   3   -130.8705733  0.267038E-06  0.443E-03    2.32       2.4  T
   4   -130.8705735 -0.245359E-06  0.228E-03    2.32       4.7  T
   5   -130.8705737 -0.220989E-06  0.661E-04    2.32      16.1  T
   6   -130.8705737 -0.239819E-07  0.193E-04    2.32      55.3  T
     SCC iter.                  ...        0 min,  0.537 sec
     gradient                   ...        0 min,  0.146 sec
 * total energy  :  -129.1120919 Eh     change       -0.7186947E-04 Eh
   gradient norm :     0.0033812 Eh/α   predicted    -0.5259712E-04 ( -26.82%)
   displ. norm   :     0.2225712 α      lambda       -0.8939159E-04
   maximum displ.:     0.0944274 α      in ANC's #5, #4, #8, ...

........................................................................
.............................. CYCLE   38 ..............................
........................................................................

 iter      E             dE          RMSdq      gap      omega  full diag
   1   -130.8697567 -0.130870E+03  0.382E-02    2.34       0.0  T
   2   -130.8697579 -0.116416E-05  0.197E-02    2.34       1.0  T
   3   -130.8697574  0.468552E-06  0.537E-03    2.34       2.0  T
   4   -130.8697579 -0.518710E-06  0.276E-03    2.33       3.9  T
   5   -130.8697582 -0.292365E-06  0.721E-04    2.34      14.8  T
   6   -130.8697582 -0.319537E-07  0.279E-04    2.34      38.2  T
     SCC iter.                  ...        0 min,  0.610 sec
     gradient                   ...        0 min,  0.117 sec
 * total energy  :  -129.1121543 Eh     change       -0.6239083E-04 Eh
   gradient norm :     0.0045621 Eh/α   predicted    -0.4691262E-04 ( -24.81%)
   displ. norm   :     0.2598689 α      lambda       -0.9478650E-04
   maximum displ.:     0.1217055 α      in ANC's #5, #4, #8, ...

........................................................................
.............................. CYCLE   39 ..............................
........................................................................

 iter      E             dE          RMSdq      gap      omega  full diag
   1   -130.8695837 -0.130870E+03  0.421E-02    2.35       0.0  T
   2   -130.8695860 -0.230140E-05  0.220E-02    2.34       1.0  T
   3   -130.8695853  0.776497E-06  0.655E-03    2.34       1.6  T
   4   -130.8695863 -0.991553E-06  0.312E-03    2.34       3.4  T
   5   -130.8695865 -0.279927E-06  0.112E-03    2.34       9.6  T
   6   -130.8695866 -0.731156E-07  0.396E-04    2.34      27.0  T
   7   -130.8695866 -0.558984E-08  0.240E-04    2.34      44.4  T
     SCC iter.                  ...        0 min,  0.799 sec
     gradient                   ...        0 min,  0.145 sec
 * total energy  :  -129.1122064 Eh     change       -0.5216850E-04 Eh
   gradient norm :     0.0042307 Eh/α   predicted    -0.5059731E-04 (  -3.01%)
   displ. norm   :     0.2037356 α      lambda       -0.7427668E-04
   maximum displ.:     0.0946964 α      in ANC's #5, #4, #8, ...

........................................................................
.............................. CYCLE   40 ..............................
........................................................................

 iter      E             dE          RMSdq      gap      omega  full diag
   1   -130.8688587 -0.130869E+03  0.319E-02    2.35       0.0  T
   2   -130.8688598 -0.109267E-05  0.171E-02    2.34       1.0  T
   3   -130.8688595  0.244882E-06  0.472E-03    2.35       2.3  T
   4   -130.8688599 -0.391529E-06  0.209E-03    2.34       5.1  T
   5   -130.8688600 -0.720318E-07  0.876E-04    2.35      12.2  T
   6   -130.8688600 -0.501335E-07  0.389E-04    2.34      27.4  T
     SCC iter.                  ...        0 min,  0.386 sec
     gradient                   ...        0 min,  0.119 sec
 * total energy  :  -129.1122543 Eh     change       -0.4786979E-04 Eh
   gradient norm :     0.0032794 Eh/α   predicted    -0.3868210E-04 ( -19.19%)
   displ. norm   :     0.1569175 α      lambda       -0.5349726E-04
   maximum displ.:     0.0782336 α      in ANC's #5, #4, #3, ...

........................................................................
.............................. CYCLE   41 ..............................
........................................................................

 iter      E             dE          RMSdq      gap      omega  full diag
   1   -130.8695102 -0.130870E+03  0.246E-02    2.35       0.0  T
   2   -130.8695107 -0.461547E-06  0.136E-02    2.35       1.0  T
   3   -130.8695105  0.154535E-06  0.317E-03    2.35       3.4  T
   4   -130.8695107 -0.192516E-06  0.144E-03    2.35       7.4  T
   5   -130.8695108 -0.580239E-07  0.610E-04    2.35      17.5  T
   6   -130.8695108 -0.175835E-07  0.280E-04    2.35      38.1  T
     SCC iter.                  ...        0 min,  0.697 sec
     gradient                   ...        0 min,  0.185 sec
 * total energy  :  -129.1122940 Eh     change       -0.3969623E-04 Eh
   gradient norm :     0.0025196 Eh/α   predicted    -0.2740933E-04 ( -30.95%)
   displ. norm   :     0.2120154 α      lambda       -0.5440631E-04
   maximum displ.:     0.1092854 α      in ANC's #5, #4, #3, ...

........................................................................
.............................. CYCLE   42 ..............................
........................................................................

 iter      E             dE          RMSdq      gap      omega  full diag
   1   -130.8703574 -0.130870E+03  0.315E-02    2.35       0.0  T
   2   -130.8703579 -0.505473E-06  0.179E-02    2.35       1.0  T
   3   -130.8703576  0.329709E-06  0.366E-03    2.35       2.9  T
   4   -130.8703580 -0.416851E-06  0.162E-03    2.35       6.6  T
   5   -130.8703581 -0.747089E-07  0.559E-04    2.35      19.1  T
   6   -130.8703581 -0.101040E-07  0.313E-04    2.35      34.0  T
     SCC iter.                  ...        0 min,  0.523 sec
     gradient                   ...        0 min,  0.114 sec
 * total energy  :  -129.1123307 Eh     change       -0.3673699E-04 Eh
   gradient norm :     0.0028872 Eh/α   predicted    -0.2843056E-04 ( -22.61%)
   displ. norm   :     0.2050854 α      lambda       -0.4104580E-04
   maximum displ.:     0.1044017 α      in ANC's #5, #4, #3, ...
 * RMSD in coord.:     0.7249070 α      energy gain  -0.8166411E-02 Eh

generating ANC from exact Hessian ...
Using Lindh-Hessian (1995)
 Shifting diagonal of input Hessian by    1.0465122876502680E-002
 Lowest  eigenvalues of input Hessian
    0.010000    0.010328    0.000000    0.000000    0.000000    0.000000
    0.000000    0.000000    0.010520    0.010665    0.010713    0.010794
    0.010895    0.011028    0.011283    0.011500    0.011656    0.011753
 Highest eigenvalues
    1.983665    2.003868    2.012215    2.015126    2.044769    2.077353


........................................................................
.............................. CYCLE   43 ..............................
........................................................................

 iter      E             dE          RMSdq      gap      omega  full diag
   1   -130.8706147 -0.130871E+03  0.309E-02    2.35       0.0  T
   2   -130.8706153 -0.602733E-06  0.173E-02    2.35       1.0  T
   3   -130.8706150  0.276471E-06  0.355E-03    2.35       3.0  T
   4   -130.8706153 -0.304289E-06  0.169E-03    2.35       6.3  T
   5   -130.8706154 -0.116216E-06  0.583E-04    2.35      18.3  T
   6   -130.8706154 -0.136767E-07  0.220E-04    2.35      48.5  T
     SCC iter.                  ...        0 min,  0.583 sec
     gradient                   ...        0 min,  0.184 sec
 * total energy  :  -129.1123590 Eh     change       -0.2823952E-04 Eh
   gradient norm :     0.0028504 Eh/α   predicted     0.0000000E+00 (-100.00%)
   displ. norm   :     0.0296045 α      lambda       -0.2240433E-04
   maximum displ.:     0.0091042 α      in ANC's #8, #7, #4, ...

........................................................................
.............................. CYCLE   44 ..............................
........................................................................

 iter      E             dE          RMSdq      gap      omega  full diag
   1   -130.8705554 -0.130871E+03  0.756E-03    2.36       0.0  T
   2   -130.8705555 -0.650991E-07  0.415E-03    2.36       2.6  T
   3   -130.8705555  0.168354E-07  0.978E-04    2.36      10.9  T
   4   -130.8705555 -0.202958E-07  0.480E-04    2.36      22.2  T
     SCC iter.                  ...        0 min,  0.314 sec
     gradient                   ...        0 min,  0.121 sec
 * total energy  :  -129.1123778 Eh     change       -0.1885852E-04 Eh
   gradient norm :     0.0014380 Eh/α   predicted    -0.1192185E-04 ( -36.78%)
   displ. norm   :     0.1149836 α      lambda       -0.3105007E-04
   maximum displ.:     0.0391121 α      in ANC's #7, #4, #8, ...

........................................................................
.............................. CYCLE   45 ..............................
........................................................................

 iter      E             dE          RMSdq      gap      omega  full diag
   1   -130.8702957 -0.130870E+03  0.217E-02    2.36       0.0  T
   2   -130.8702962 -0.524219E-06  0.120E-02    2.36       1.0  T
   3   -130.8702961  0.118491E-06  0.281E-03    2.36       3.8  T
   4   -130.8702963 -0.181565E-06  0.131E-03    2.36       8.1  T
   5   -130.8702963 -0.331122E-07  0.564E-04    2.36      18.9  T
   6   -130.8702963 -0.195837E-07  0.183E-04    2.36      58.3  T
     SCC iter.                  ...        0 min,  0.823 sec
     gradient                   ...        0 min,  0.135 sec
 * total energy  :  -129.1123992 Eh     change       -0.2137804E-04 Eh
   gradient norm :     0.0024727 Eh/α   predicted    -0.1702805E-04 ( -20.35%)
   displ. norm   :     0.0294331 α      lambda       -0.1190625E-04
   maximum displ.:     0.0113947 α      in ANC's #4, #6, #8, ...

........................................................................
.............................. CYCLE   46 ..............................
........................................................................

 iter      E             dE          RMSdq      gap      omega  full diag
   1   -130.8704794 -0.130870E+03  0.809E-03    2.36       0.0  T
   2   -130.8704795 -0.985141E-07  0.386E-03    2.36       2.8  T
   3   -130.8704795  0.610564E-08  0.115E-03    2.36       9.2  T
   4   -130.8704795 -0.117788E-08  0.601E-04    2.36      17.7  T
   5   -130.8704795 -0.179357E-07  0.251E-04    2.36      42.5  T
     SCC iter.                  ...        0 min,  0.819 sec
     gradient                   ...        0 min,  0.130 sec
 * total energy  :  -129.1124091 Eh     change       -0.9888717E-05 Eh
   gradient norm :     0.0018653 Eh/α   predicted    -0.5958510E-05 ( -39.74%)
   displ. norm   :     0.1873044 α      lambda       -0.3863113E-04
   maximum displ.:     0.0774359 α      in ANC's #4, #6, #7, ...

........................................................................
.............................. CYCLE   47 ..............................
........................................................................

 iter      E             dE          RMSdq      gap      omega  full diag
   1   -130.8710777 -0.130871E+03  0.312E-02    2.37       0.0  T
   2   -130.8710784 -0.775316E-06  0.168E-02    2.37       1.0  T
   3   -130.8710782  0.218968E-06  0.383E-03    2.37       2.8  T
   4   -130.8710784 -0.218770E-06  0.196E-03    2.37       5.4  T
   5   -130.8710786 -0.173836E-06  0.579E-04    2.37      18.4  T
   6   -130.8710786 -0.118100E-07  0.202E-04    2.37      52.8  T
     SCC iter.                  ...        0 min,  0.461 sec
     gradient                   ...        0 min,  0.119 sec
 * total energy  :  -129.1124405 Eh     change       -0.3141117E-04 Eh
   gradient norm :     0.0023718 Eh/α   predicted    -0.1961726E-04 ( -37.55%)
   displ. norm   :     0.0909743 α      lambda       -0.1757333E-04
   maximum displ.:     0.0389047 α      in ANC's #4, #6, #7, ...

........................................................................
.............................. CYCLE   48 ..............................
........................................................................

 iter      E             dE          RMSdq      gap      omega  full diag
   1   -130.8709608 -0.130871E+03  0.135E-02    2.37       0.0  T
   2   -130.8709609 -0.820453E-07  0.740E-03    2.37       1.4  T
   3   -130.8709609  0.222092E-07  0.140E-03    2.37       7.6  T
   4   -130.8709609 -0.146082E-07  0.773E-04    2.37      13.8  T
   5   -130.8709609 -0.337723E-07  0.209E-04    2.37      51.1  T
     SCC iter.                  ...        0 min,  0.536 sec
     gradient                   ...        0 min,  0.117 sec
 * total energy  :  -129.1124566 Eh     change       -0.1604371E-04 Eh
   gradient norm :     0.0020290 Eh/α   predicted    -0.8869029E-05 ( -44.72%)
   displ. norm   :     0.2733114 α      lambda       -0.5237268E-04
   maximum displ.:     0.1193696 α      in ANC's #4, #6, #7, ...

........................................................................
.............................. CYCLE   49 ..............................
........................................................................

 iter      E             dE          RMSdq      gap      omega  full diag
   1   -130.8704102 -0.130870E+03  0.412E-02    2.36       0.0  T
   2   -130.8704110 -0.809060E-06  0.224E-02    2.37       1.0  T
   3   -130.8704109  0.646823E-07  0.423E-03    2.37       2.5  T
   4   -130.8704109 -0.125034E-07  0.222E-03    2.37       4.8  T
   5   -130.8704112 -0.292050E-06  0.542E-04    2.37      19.7  T
   6   -130.8704112 -0.153247E-07  0.300E-04    2.37      35.6  T
     SCC iter.                  ...        0 min,  0.546 sec
     gradient                   ...        0 min,  0.115 sec
 * total energy  :  -129.1124955 Eh     change       -0.3891162E-04 Eh
   gradient norm :     0.0009658 Eh/α   predicted    -0.2814256E-04 ( -27.68%)
   displ. norm   :     0.3911379 α      lambda       -0.3193886E-04
   maximum displ.:     0.1741194 α      in ANC's #4, #6, #7, ...

........................................................................
.............................. CYCLE   50 ..............................
........................................................................

 iter      E             dE          RMSdq      gap      omega  full diag
   1   -130.8694877 -0.130869E+03  0.583E-02    2.37       0.0  T
   2   -130.8694894 -0.165297E-05  0.317E-02    2.37       1.0  T
   3   -130.8694891  0.273404E-06  0.607E-03    2.37       1.8  T
   4   -130.8694893 -0.228612E-06  0.327E-03    2.37       3.3  T
   5   -130.8694899 -0.523079E-06  0.926E-04    2.37      11.5  T
   6   -130.8694899 -0.501650E-07  0.453E-04    2.37      23.5  T
     SCC iter.                  ...        0 min,  0.568 sec
     gradient                   ...        0 min,  0.117 sec
 * total energy  :  -129.1125250 Eh     change       -0.2952396E-04 Eh
   gradient norm :     0.0021323 Eh/α   predicted    -0.1705550E-04 ( -42.23%)
   displ. norm   :     0.1214463 α      lambda       -0.2066210E-04
   maximum displ.:     0.0575701 α      in ANC's #4, #6, #7, ...

........................................................................
.............................. CYCLE   51 ..............................
........................................................................

 iter      E             dE          RMSdq      gap      omega  full diag
   1   -130.8702192 -0.130870E+03  0.209E-02    2.37       0.0  T
   2   -130.8702195 -0.283307E-06  0.107E-02    2.37       1.0  T
   3   -130.8702195  0.257166E-07  0.237E-03    2.37       4.5  T
   4   -130.8702195 -0.138845E-07  0.131E-03    2.37       8.1  T
   5   -130.8702196 -0.754366E-07  0.373E-04    2.37      28.6  T
   6   -130.8702196 -0.110604E-07  0.132E-04    2.37      80.7  T
     SCC iter.                  ...        0 min,  0.635 sec
     gradient                   ...        0 min,  0.119 sec
 * total energy  :  -129.1125435 Eh     change       -0.1852761E-04 Eh
   gradient norm :     0.0017727 Eh/α   predicted    -0.1048530E-04 ( -43.41%)
   displ. norm   :     0.4112873 α      lambda       -0.5411034E-04
   maximum displ.:     0.1978753 α      in ANC's #4, #6, #5, ...

........................................................................
.............................. CYCLE   52 ..............................
........................................................................

 iter      E             dE          RMSdq      gap      omega  full diag
   1   -130.8722093 -0.130872E+03  0.661E-02    2.39       0.0  T
   2   -130.8722120 -0.269874E-05  0.348E-02    2.39       1.0  T
   3   -130.8722118  0.210703E-06  0.736E-03    2.39       1.4  T
   4   -130.8722118 -0.624671E-07  0.407E-03    2.39       2.6  T
   5   -130.8722126 -0.800062E-06  0.112E-03    2.39       9.5  T
   6   -130.8722127 -0.801187E-07  0.402E-04    2.39      26.5  T
   7   -130.8722127 -0.678938E-08  0.213E-04    2.39      50.0  T
     SCC iter.                  ...        0 min,  0.649 sec
     gradient                   ...        0 min,  0.129 sec
 * total energy  :  -129.1125981 Eh     change       -0.5458245E-04 Eh
   gradient norm :     0.0014199 Eh/α   predicted    -0.2909430E-04 ( -46.70%)
   displ. norm   :     0.4226142 α      lambda       -0.3186606E-04
   maximum displ.:     0.2100078 α      in ANC's #4, #6, #5, ...

........................................................................
.............................. CYCLE   53 ..............................
........................................................................

 iter      E             dE          RMSdq      gap      omega  full diag
   1   -130.8697863 -0.130870E+03  0.750E-02    2.39       0.0  T
   2   -130.8697897 -0.340224E-05  0.384E-02    2.39       1.0  T
   3   -130.8697896  0.345210E-07  0.809E-03    2.39       1.3  T
   4   -130.8697896  0.159260E-07  0.443E-03    2.39       2.4  T
   5   -130.8697905 -0.855350E-06  0.112E-03    2.39       9.5  T
   6   -130.8697906 -0.903650E-07  0.455E-04    2.39      23.4  T
   7   -130.8697906 -0.973432E-08  0.235E-04    2.39      45.4  T
     SCC iter.                  ...        0 min,  0.556 sec
     gradient                   ...        0 min,  0.186 sec
 * total energy  :  -129.1126270 Eh     change       -0.2891310E-04 Eh
   gradient norm :     0.0020869 Eh/α   predicted    -0.1719814E-04 ( -40.52%)
   displ. norm   :     0.1457272 α      lambda       -0.2670809E-04
   maximum displ.:     0.0752222 α      in ANC's #4, #6, #5, ...

........................................................................
.............................. CYCLE   54 ..............................
........................................................................

 iter      E             dE          RMSdq      gap      omega  full diag
   1   -130.8701375 -0.130870E+03  0.224E-02    2.40       0.0  T
   2   -130.8701378 -0.231069E-06  0.123E-02    2.40       1.0  T
   3   -130.8701377  0.101805E-06  0.247E-03    2.40       4.3  T
   4   -130.8701377 -0.899888E-07  0.141E-03    2.40       7.6  T
   5   -130.8701378 -0.103114E-06  0.362E-04    2.40      29.4  T
   6   -130.8701378 -0.262509E-08  0.213E-04    2.40      50.1  T
     SCC iter.                  ...        0 min,  0.639 sec
     gradient                   ...        0 min,  0.123 sec
 * total energy  :  -129.1126492 Eh     change       -0.2219583E-04 Eh
   gradient norm :     0.0015692 Eh/α   predicted    -0.1364408E-04 ( -38.53%)
   displ. norm   :     0.4139015 α      lambda       -0.5037982E-04
   maximum displ.:     0.2164976 α      in ANC's #4, #6, #5, ...

........................................................................
.............................. CYCLE   55 ..............................
........................................................................

 iter      E             dE          RMSdq      gap      omega  full diag
   1   -130.8717319 -0.130872E+03  0.646E-02    2.42       0.0  T
   2   -130.8717338 -0.188578E-05  0.355E-02    2.42       1.0  T
   3   -130.8717334  0.372652E-06  0.643E-03    2.42       1.7  T
   4   -130.8717337 -0.325260E-06  0.354E-03    2.42       3.0  T
   5   -130.8717344 -0.664950E-06  0.950E-04    2.42      11.2  T
   6   -130.8717344 -0.538373E-07  0.378E-04    2.42      28.2  T
     SCC iter.                  ...        0 min,  0.522 sec
     gradient                   ...        0 min,  0.171 sec
 * total energy  :  -129.1126925 Eh     change       -0.4325712E-04 Eh
   gradient norm :     0.0015270 Eh/α   predicted    -0.2710869E-04 ( -37.33%)
   displ. norm   :     0.4332729 α      lambda       -0.3485037E-04
[...]
     9  34 Se       1.911    -0.035   236.865    26.818
    10  16 S        2.067    -0.058   143.441    20.158
    11   6 C        2.963     0.049    26.899     8.507
    12   6 C        3.026    -0.027    28.638     8.778
    13   6 C        2.919    -0.014    28.351     8.732
    14   6 C        2.918    -0.021    28.522     8.758
    15   6 C        2.926    -0.020    28.502     8.755
    16   6 C        2.981    -0.034    28.830     8.808
    17   6 C        3.336     0.487    17.267     6.580
    18   9 F        0.792    -0.185    11.084     3.933
    19   9 F        0.808    -0.179    11.023     3.922
    20   9 F        0.793    -0.200    11.237     3.960
    21   7 N        2.682    -0.117    23.557     7.208
    22   6 C        3.879    -0.035    21.144     6.538
    23   6 C        3.095     0.049    26.778     8.481
    24   6 C        2.918    -0.056    29.397     8.891
    25   6 C        2.926    -0.042    29.047     8.838
    26   6 C        2.970     0.012    27.755     8.642
    27   6 C        2.975     0.012    27.752     8.641
    28   6 C        2.983    -0.013    28.342     8.733
    29   6 C        2.982    -0.010    28.265     8.721
    30   6 C        3.218     0.051    26.182     8.322
    31   6 C        2.917    -0.054    29.349     8.884
    32   6 C        2.921    -0.042    29.047     8.838
    33   6 C        2.984     0.007    27.864     8.659
    34   6 C        2.981     0.009    27.811     8.651
    35   6 C        3.809    -0.061    21.671     6.627
    36   6 C        3.802    -0.058    21.623     6.620
    37   6 C        3.808    -0.055    21.563     6.610
    38   6 C        3.812    -0.063    21.702     6.631
    39   7 N        2.683    -0.126    23.746     7.237
    40   6 C        3.879    -0.037    21.178     6.543
    41   6 C        3.811    -0.063    21.707     6.632
    42   6 C        3.807    -0.056    21.575     6.612
    43   6 C        3.807    -0.058    21.615     6.618
    44   6 C        3.812    -0.063    21.708     6.632
    45   1 H        0.925     0.066     2.124     2.279
    46   1 H        0.925     0.050     2.314     2.379
    47   1 H        0.925     0.061     2.184     2.311
    48   1 H        0.923     0.055     2.257     2.350
    49   1 H        0.925     0.051     2.309     2.376
    50   1 H        0.925     0.065     2.139     2.287
    51   1 H        0.925     0.066     2.126     2.280
    52   1 H        0.924     0.053     2.288     2.365
    53   1 H        0.925     0.060     2.194     2.316
    54   1 H        0.925     0.046     2.374     2.410
    55   1 H        0.925     0.060     2.200     2.320
    56   1 H        0.925     0.050     2.320     2.382
    57   1 H        0.925     0.059     2.209     2.324
    58   1 H        0.925     0.057     2.230     2.335
    59   1 H        0.926     0.065     2.141     2.288
    60   1 H        0.926     0.072     2.067     2.248
    61   1 H        0.926     0.074     2.041     2.234
    62   1 H        0.926     0.080     1.980     2.200
    63   1 H        0.925     0.077     2.007     2.215
    64   1 H        0.924     0.069     2.094     2.263
    65   1 H        0.924     0.055     2.263     2.352
    66   1 H        0.926     0.041     2.441     2.443
    67   1 H        0.926     0.049     2.330     2.387
    68   1 H        0.926     0.045     2.387     2.416
    69   1 H        0.926     0.038     2.478     2.462
    70   1 H        0.925     0.045     2.378     2.412
    71   1 H        0.924     0.048     2.343     2.394
    72   1 H        0.924     0.042     2.422     2.434
    73   1 H        0.925     0.041     2.435     2.440
    74   1 H        0.924     0.036     2.503     2.474
    75   1 H        0.925     0.045     2.378     2.412
    76   1 H        0.924     0.050     2.317     2.381
    77   1 H        0.925     0.041     2.434     2.440
    78   1 H        0.925     0.068     2.109     2.271
    79   1 H        0.924     0.054     2.268     2.355
    80   1 H        0.925     0.075     2.028     2.227
    81   1 H        0.925     0.053     2.287     2.365
    82   1 H        0.924     0.047     2.357     2.401
    83   1 H        0.924     0.039     2.468     2.457
    84   1 H        0.924     0.038     2.477     2.461
    85   1 H        0.924     0.042     2.421     2.433
    86   1 H        0.924     0.039     2.468     2.457
    87   1 H        0.924     0.055     2.257     2.349
    88   1 H        0.924     0.049     2.331     2.388

 Mol. C6AA /au·bohr⁶  :      92244.771146
 Mol. C8AA /au·bohr⁸  :    2485352.507788
 Mol. α(0) /au        :        475.403242


Wiberg/Mayer (AO) data.
largest (>0.10) Wiberg bond orders for each atom

 ---------------------------------------------------------------------------
     #   Z sym  total        # sym  WBO       # sym  WBO       # sym  WBO
 ---------------------------------------------------------------------------
     1   6 C    3.988 --     2 C    1.005    46 H    0.980    45 H    0.978
                            47 H    0.975
     2   6 C    3.961 --     1 C    1.005     3 C    1.003     4 N    0.943
                            48 H    0.917
     3   6 C    3.989 --     2 C    1.003    50 H    0.980    51 H    0.978
                            49 H    0.973
     4   7 N    3.408 --     8 P    1.260     2 C    0.943     5 C    0.933
     5   6 C    3.958 --     7 C    1.005     6 C    1.001    52 H    0.935
                             4 N    0.933
     6   6 C    3.988 --     5 C    1.001    53 H    0.980    55 H    0.980
                            54 H    0.979
     7   6 C    3.989 --     5 C    1.005    56 H    0.982    57 H    0.980
                            58 H    0.978
     8  15 P    5.071 --     4 N    1.260    21 N    1.230    39 N    1.189
                             9 Se   0.947
     9  34 Se   2.709 --    10 S    1.225     8 P    0.947
    10  16 S    2.451 --     9 Se   1.225    11 C    1.002
    11   6 C    3.962 --    12 C    1.381    16 C    1.380    10 S    1.002
    12   6 C    3.985 --    13 C    1.455    11 C    1.381    59 H    0.962
                            15 C    0.107
    13   6 C    3.982 --    12 C    1.455    14 C    1.419    60 H    0.965
                            16 C    0.101
    14   6 C    3.983 --    15 C    1.450    13 C    1.419    61 H    0.966
    15   6 C    3.984 --    14 C    1.450    16 C    1.396    62 H    0.962
                            12 C    0.107
    16   6 C    3.965 --    15 C    1.396    11 C    1.380    17 C    0.954
                            13 C    0.101
    17   6 C    3.821 --    18 F    0.973    16 C    0.954    19 F    0.933
                            20 F    0.926
    18   9 F    1.098 --    17 C    0.973
    19   9 F    1.141 --    17 C    0.933
    20   9 F    1.099 --    17 C    0.926
    21   7 N    3.424 --     8 P    1.230    22 C    0.972    23 C    0.963
    22   6 C    3.961 --    63 H    0.977    65 H    0.973    21 N    0.972
                            64 H    0.959
    23   6 C    3.945 --    24 C    1.379    28 C    1.366    21 N    0.963
    24   6 C    3.983 --    25 C    1.450    23 C    1.379    66 H    0.963
    25   6 C    3.986 --    24 C    1.450    26 C    1.397    67 H    0.967
    26   6 C    3.985 --    25 C    1.397    27 C    1.391    44 C    1.014
    27   6 C    3.985 --    26 C    1.391    28 C    1.359    41 C    1.015
    28   6 C    3.985 --    23 C    1.366    27 C    1.359    29 C    1.019
    29   6 C    3.986 --    34 C    1.375    30 C    1.352    28 C    1.019
    30   6 C    3.951 --    31 C    1.394    29 C    1.352    39 N    0.967
    31   6 C    3.988 --    32 C    1.434    30 C    1.394    68 H    0.962
                            34 C    0.100
    32   6 C    3.988 --    31 C    1.434    33 C    1.414    69 H    0.968
    33   6 C    3.983 --    32 C    1.414    34 C    1.369    38 C    1.020
    34   6 C    3.986 --    29 C    1.375    33 C    1.369    35 C    1.022
                            31 C    0.100
    35   6 C    3.995 --    34 C    1.022    36 C    0.989    70 H    0.972
                            71 H    0.954
    36   6 C    3.995 --    37 C    1.007    35 C    0.989    72 H    0.980
                            73 H    0.978
    37   6 C    3.995 --    36 C    1.007    38 C    0.992    74 H    0.981
                            75 H    0.977
    38   6 C    3.996 --    33 C    1.020    37 C    0.992    77 H    0.975
                            76 H    0.956
    39   7 N    3.397 --     8 P    1.189    40 C    0.973    30 C    0.967
    40   6 C    3.963 --    80 H    0.977    39 N    0.973    79 H    0.969
                            78 H    0.965
    41   6 C    3.995 --    27 C    1.015    42 C    1.006    81 H    0.961
                            82 H    0.953
    42   6 C    3.997 --    43 C    1.009    41 C    1.006    83 H    0.977
                            84 H    0.976
    43   6 C    3.996 --    42 C    1.009    44 C    1.007    86 H    0.977
                            85 H    0.977
    44   6 C    3.995 --    26 C    1.014    43 C    1.007    88 H    0.966
                            87 H    0.954
    45   1 H    0.995 --     1 C    0.978
    46   1 H    0.997 --     1 C    0.980
    47   1 H    0.993 --     1 C    0.975
    48   1 H    0.997 --     2 C    0.917
    49   1 H    0.997 --     3 C    0.973
    50   1 H    0.995 --     3 C    0.980
    51   1 H    0.995 --     3 C    0.978
    52   1 H    0.997 --     5 C    0.935
    53   1 H    0.996 --     6 C    0.980
    54   1 H    0.998 --     6 C    0.979
    55   1 H    0.995 --     6 C    0.980
    56   1 H    0.997 --     7 C    0.982
    57   1 H    0.995 --     7 C    0.980
    58   1 H    0.996 --     7 C    0.978
    59   1 H    0.995 --    12 C    0.962
    60   1 H    0.994 --    13 C    0.965
    61   1 H    0.993 --    14 C    0.966
    62   1 H    0.993 --    15 C    0.962
    63   1 H    0.993 --    22 C    0.977
    64   1 H    0.994 --    22 C    0.959
    65   1 H    0.997 --    22 C    0.973
    66   1 H    0.997 --    24 C    0.963
    67   1 H    0.996 --    25 C    0.967
    68   1 H    0.997 --    31 C    0.962
    69   1 H    0.997 --    32 C    0.968
    70   1 H    0.998 --    35 C    0.972
    71   1 H    0.997 --    35 C    0.954
    72   1 H    0.998 --    36 C    0.980
    73   1 H    0.998 --    36 C    0.978
    74   1 H    0.999 --    37 C    0.981
    75   1 H    0.997 --    37 C    0.977
    76   1 H    0.997 --    38 C    0.956
    77   1 H    0.998 --    38 C    0.975
    78   1 H    0.995 --    40 C    0.965
    79   1 H    0.997 --    40 C    0.969
    80   1 H    0.994 --    40 C    0.977
    81   1 H    0.997 --    41 C    0.961
    82   1 H    0.998 --    41 C    0.953
    83   1 H    0.998 --    42 C    0.977
    84   1 H    0.999 --    42 C    0.976
    85   1 H    0.997 --    43 C    0.977
    86   1 H    0.998 --    43 C    0.977
    87   1 H    0.996 --    44 C    0.954
    88   1 H    0.997 --    44 C    0.966
 ---------------------------------------------------------------------------

Topologies differ in total number of bonds
Writing topology from bond orders to xtbtopo.mol

molecular dipole:
                 x           y           z       tot (Debye)
 q only:       -0.048      -0.621       0.584
   full:        0.152      -0.661       0.497       2.136
molecular quadrupole (traceless):
                xx          xy          yy          xz          yz          zz
 q only:      -17.018       0.272      43.389      -0.406     -13.251     -26.371
  q+dip:      -18.372       1.980      43.591      -7.276     -16.337     -25.219
   full:      -17.921       2.818      42.804      -3.750     -14.001     -24.883

           -------------------------------------------------
          |                Geometry Summary                 |
           -------------------------------------------------

      molecular mass/u    :      705.7384066
   center of mass at/Å    :        0.8950788       0.2209719       0.0275914
  moments of inertia/u·Å² :        0.5717255E+04   0.7303283E+04   0.1126433E+05
rotational constants/cm⁻¹ :        0.2948554E-02   0.2308227E-02   0.1496549E-02

 * 83 selected distances

     #   Z          #   Z                                           value/Å
     1   6 C        2   6 C                                       1.5227340
     2   6 C        3   6 C                                       1.5279886
     2   6 C        4   7 N                                       1.4727971
     4   7 N        5   6 C                                       1.4750745
     5   6 C        6   6 C                                       1.5277558
     5   6 C        7   6 C                                       1.5240845
     4   7 N        8  15 P                                       1.6522705
    11   6 C       12   6 C                                       1.3928343
    12   6 C       13   6 C                                       1.3795624
    13   6 C       14   6 C                                       1.3855914
    14   6 C       15   6 C                                       1.3804482
    11   6 C       16   6 C                                       1.3941959
    15   6 C       16   6 C                                       1.3942348
    17   6 C       18   9 F                                       1.3287893
    17   6 C       19   9 F                                       1.3512116
    17   6 C       20   9 F                                       1.3567509
     8  15 P       21   7 N                                       1.6550651
    21   7 N       22   6 C                                       1.4582440
    21   7 N       23   6 C                                       1.4333744
    23   6 C       24   6 C                                       1.3890253
    24   6 C       25   6 C                                       1.3793714
    25   6 C       26   6 C                                       1.3901727
    26   6 C       27   6 C                                       1.3936376
    23   6 C       28   6 C                                       1.3919497
    27   6 C       28   6 C                                       1.4024616
    29   6 C       30   6 C                                       1.3936258
    30   6 C       31   6 C                                       1.3871956
    31   6 C       32   6 C                                       1.3834886
    32   6 C       33   6 C                                       1.3847553
    29   6 C       34   6 C                                       1.3959145
    33   6 C       34   6 C                                       1.3954795
    36   6 C       37   6 C                                       1.5333572
    37   6 C       38   6 C                                       1.5317934
     8  15 P       39   7 N                                       1.6712764 (max)
    30   6 C       39   7 N                                       1.4340572
    39   7 N       40   6 C                                       1.4582763
    41   6 C       42   6 C                                       1.5240518
    42   6 C       43   6 C                                       1.5222156
    43   6 C       44   6 C                                       1.5238613
     1   6 C       45   1 H                                       1.0870686
     1   6 C       46   1 H                                       1.0864892
     1   6 C       47   1 H                                       1.0855619
     2   6 C       48   1 H                                       1.1047188
     3   6 C       49   1 H                                       1.0888794
     3   6 C       50   1 H                                       1.0867839
     3   6 C       51   1 H                                       1.0847759
     5   6 C       52   1 H                                       1.0957471
     6   6 C       53   1 H                                       1.0843129
     6   6 C       54   1 H                                       1.0873286
     6   6 C       55   1 H                                       1.0871569
     7   6 C       56   1 H                                       1.0868197
     7   6 C       57   1 H                                       1.0873497
     7   6 C       58   1 H                                       1.0854063
    12   6 C       59   1 H                                       1.0789801
    13   6 C       60   1 H                                       1.0784046
    14   6 C       61   1 H                                       1.0779288 (min)
    15   6 C       62   1 H                                       1.0788363
    22   6 C       63   1 H                                       1.0892031
    22   6 C       64   1 H                                       1.0908348
    22   6 C       65   1 H                                       1.0927171
    24   6 C       66   1 H                                       1.0786913
    25   6 C       67   1 H                                       1.0794890
    31   6 C       68   1 H                                       1.0785325
    32   6 C       69   1 H                                       1.0796584
    35   6 C       70   1 H                                       1.0891205
    35   6 C       71   1 H                                       1.0950874
    36   6 C       72   1 H                                       1.0905511
    36   6 C       73   1 H                                       1.0900508
    37   6 C       74   1 H                                       1.0920515
    37   6 C       75   1 H                                       1.0895912
    38   6 C       76   1 H                                       1.0926029
    38   6 C       77   1 H                                       1.0900308
    40   6 C       78   1 H                                       1.0882205
    40   6 C       79   1 H                                       1.0946108
    40   6 C       80   1 H                                       1.0890472
    41   6 C       81   1 H                                       1.0881079
    41   6 C       82   1 H                                       1.0961772
    42   6 C       83   1 H                                       1.0907394
    42   6 C       84   1 H                                       1.0922157
    43   6 C       85   1 H                                       1.0903592
    43   6 C       86   1 H                                       1.0918930
    44   6 C       87   1 H                                       1.0952510
    44   6 C       88   1 H                                       1.0918583

 * 5 distinct bonds (by element types)

   Z      Z             #   av. dist./Å        max./Å        min./Å
   1 H    6 C          44     1.0881646     1.1047188     1.0779288
   6 C    6 C          27     1.4352514     1.5333572     1.3793714
   6 C    7 N           6     1.4553039     1.4750745     1.4333744
   6 C    9 F           3     1.3455839     1.3567509     1.3287893
   7 N   15 P           3     1.6595374     1.6712764     1.6522705


optimized geometry written to: xtbopt.xyz


           -------------------------------------------------
          | TOTAL ENERGY             -129.115519957437 Eh   |
          | GRADIENT NORM               0.000046931543 Eh/α |
          | HOMO-LUMO GAP               2.750548261448 eV   |
           -------------------------------------------------

------------------------------------------------------------------------
 * finished run on 2024/12/16 at 16:16:58.772     
------------------------------------------------------------------------
 total:
 * wall-time:     0 d,  0 h,  2 min, 28.207 sec
 *  cpu-time:     0 d,  0 h, 19 min, 22.277 sec
 * ratio c/w:     7.842 speedup
 SCF:
 * wall-time:     0 d,  0 h,  0 min,  2.159 sec
 *  cpu-time:     0 d,  0 h,  0 min, 17.178 sec
 * ratio c/w:     7.958 speedup
 ANC optimizer:
 * wall-time:     0 d,  0 h,  2 min, 25.544 sec
 *  cpu-time:     0 d,  0 h, 19 min,  3.576 sec
 * ratio c/w:     7.857 speedup

