88
 energy: -128.763057443962 gnorm: 0.457439353654 xtb: 6.7.1 (edcfbbe)
C            2.85789300000000       -4.64959700000000       -0.89872800000000
C            2.61081100000000       -3.63489900000000        0.16405900000000
C            3.13689100000000       -4.24947500000000        1.46231000000000
N            1.37032200000000       -3.01477600000000        0.24836200000000
C            0.17882000000000       -3.72921100000000        0.45220100000000
C           -0.13431100000000       -4.74949600000000       -0.63281500000000
C           -0.00659800000000       -4.32037800000000        1.82892000000000
P            1.29864000000000       -1.30589900000000        0.30654500000000
Se           3.05890400000000       -0.62698700000000        0.69239200000000
S            3.33840300000000        0.92373900000000        1.68738400000000
C            4.08697300000000        2.17591900000000        0.65708300000000
C            3.25224600000000        3.02395000000000       -0.02295900000000
C            3.83188000000000        3.98919700000000       -0.81696900000000
C            5.20927600000000        4.07695900000000       -0.90645400000000
C            6.04929200000000        3.21693000000000       -0.21669000000000
C            5.46787300000000        2.23954200000000        0.58723100000000
C            6.27690200000000        1.27481500000000        1.36217800000000
F            7.62504200000000        1.52986400000000        1.13693400000000
F            5.99852100000000        1.30678900000000        2.70428300000000
F            6.02237700000000       -0.02803600000000        0.91271200000000
N            0.23803500000000       -0.79691300000000        1.62655700000000
C            0.73625100000000       -0.80428000000000        2.97516800000000
C           -1.13164600000000       -0.39537700000000        1.51127000000000
C           -1.88610800000000       -0.86818600000000        2.57035900000000
C           -3.25225400000000       -0.66913100000000        2.48108500000000
C           -3.85597600000000       -0.04094200000000        1.40584500000000
C           -3.09202300000000        0.44126300000000        0.32350600000000
C           -1.72098500000000        0.23660100000000        0.44720400000000
C           -1.07070600000000        0.91132900000000       -0.67768800000000
C           -0.06405900000000        0.44092200000000       -1.49528600000000
C            0.34182100000000        1.15908600000000       -2.60640100000000
C           -0.30308100000000        2.35769100000000       -2.84371000000000
C           -1.31084000000000        2.84919100000000       -2.02491500000000
C           -1.72643200000000        2.11790400000000       -0.88729500000000
C           -2.58710100000000        2.76107100000000        0.14961900000000
C           -3.31809500000000        3.98633800000000       -0.22411200000000
C           -3.33342100000000        4.21154300000000       -1.69387800000000
C           -1.96703600000000        4.14372700000000       -2.34406700000000
N            0.77751000000000       -0.70119200000000       -1.24934700000000
C            1.22877500000000       -1.33655800000000       -2.46042900000000
C           -3.73640700000000        0.85943700000000       -0.94603000000000
C           -5.20357900000000        1.15129000000000       -0.89723300000000
C           -5.91077200000000        0.28112700000000        0.07192400000000
C           -5.33496400000000        0.10911200000000        1.42980400000000
H            3.95687800000000       -4.90795500000000       -0.81275000000000
H            2.75399100000000       -4.30751000000000       -1.93345900000000
H            2.35518500000000       -5.62501000000000       -0.76100400000000
H            3.36578800000000       -2.81529900000000       -0.04387600000000
H            3.12171100000000       -3.48555000000000        2.24021400000000
H            4.21452100000000       -4.52635100000000        1.26079100000000
H            2.64933100000000       -5.20304200000000        1.68952900000000
H           -0.64666600000000       -2.96796900000000        0.34644900000000
H            0.01211900000000       -5.80143000000000       -0.28152300000000
H            0.39094300000000       -4.51462400000000       -1.57426400000000
H           -1.22590500000000       -4.73414600000000       -0.92416200000000
H            0.78124700000000       -3.93529600000000        2.49213400000000
H           -0.96368400000000       -3.99863800000000        2.28638000000000
H           -0.05778400000000       -5.42718900000000        1.81068000000000
H            2.17738100000000        2.93224700000000        0.06580900000000
H            3.16621900000000        4.66132500000000       -1.35600100000000
H            5.61278100000000        4.85229800000000       -1.54350200000000
H            7.13642800000000        3.28581500000000       -0.28684800000000
H            0.30143700000000        0.04046300000000        3.58517000000000
H            1.82575900000000       -0.61449400000000        3.04262400000000
H            0.60786300000000       -1.77633600000000        3.50649000000000
H           -1.37156400000000       -1.33577500000000        3.36815900000000
H           -3.86975600000000       -1.02118100000000        3.28797700000000
H            1.11501200000000        0.73483800000000       -3.20324800000000
H           -0.01418500000000        2.93450400000000       -3.69609800000000
H           -2.64504100000000        2.43211800000000        1.18578500000000
H           -1.65472400000000        3.39607100000000        0.57962800000000
H           -2.97678400000000        4.92061000000000        0.26716900000000
H           -4.40387400000000        3.97037600000000        0.13084700000000
H           -3.98809600000000        3.52175300000000       -2.26886400000000
H           -3.72358000000000        5.24408000000000       -1.91497500000000
H           -1.27873400000000        4.94443200000000       -2.01963700000000
H           -2.10361200000000        4.19378200000000       -3.42160800000000
H            1.31319500000000       -2.42987700000000       -2.31093800000000
H            2.24175000000000       -1.00933200000000       -2.76680500000000
H            0.49104100000000       -1.23649800000000       -3.29582200000000
H           -3.26871500000000        0.87556700000000       -1.91867700000000
H           -3.97066100000000       -0.28561600000000       -1.24636000000000
H           -5.66858400000000        0.87425400000000       -1.90487300000000
H           -5.49871200000000        2.21286900000000       -0.86428600000000
H           -6.92642900000000        0.73390300000000        0.21878600000000
H           -6.08991700000000       -0.73478800000000       -0.36757700000000
H           -5.56197600000000        0.91413100000000        2.14832700000000
H           -5.72866300000000       -0.83553300000000        1.85428300000000
88
 energy: -128.936933471608 gnorm: 0.200130897884 xtb: 6.7.1 (edcfbbe)
C            2.87667924299543       -4.66375189397689       -0.91071882789486
C            2.63411838563437       -3.63426159152486        0.16246099960527
C            3.14990468131991       -4.25214184840854        1.46242261269562
N            1.35688069841933       -3.00969423083923        0.24253642586967
C            0.14515885229925       -3.73165676959763        0.44585991386434
C           -0.15068028983447       -4.75823418451533       -0.64388123411276
C           -0.01349792449135       -4.32044239054844        1.84040549906191
P            1.20746900522913       -1.32723438242706        0.29146551105614
Se           3.21505861947756       -0.70909757580211        0.64711821668058
S            3.32571904421558        1.02159281935024        1.78697329061043
C            4.08260368179489        2.18017707124884        0.65655200690560
C            3.25022064440938        3.02772224965131       -0.02898040875785
C            3.83020110383317        3.99450578104830       -0.82290660327774
C            5.20969726165473        4.08322756081260       -0.91198735600168
C            6.04630571055616        3.22125153950418       -0.21976293443259
C            5.46512214959950        2.24821053721522        0.58447705044706
C            6.28232800942358        1.27616259490308        1.35742891711858
F            7.61246638243978        1.51373924383525        1.15189013961591
F            6.01597491187833        1.30182714514138        2.68672315359421
F            6.02965071036039       -0.01679065371139        0.92307706582280
N            0.23824724144723       -0.78549925076732        1.61713529797692
C            0.75268283343325       -0.80169760618537        2.97448106128693
C           -1.12986625895680       -0.41272083313341        1.50883584911101
C           -1.89788183036041       -0.86584197759711        2.56849371558851
C           -3.25483439071704       -0.66382976343183        2.49107888898169
C           -3.85652185034019       -0.04734388687159        1.40913976347954
C           -3.09797148022871        0.41172046697096        0.33350786440603
C           -1.71467374173841        0.22390458849046        0.43915770639513
C           -1.05836731240819        0.91114835741885       -0.66884163304629
C           -0.05154137278861        0.44435609002241       -1.48756973044585
C            0.33872235944958        1.16921403552429       -2.60327522119390
C           -0.30801820485354        2.35809376405145       -2.85121371854290
C           -1.30647159645834        2.84870352704139       -2.02604025131833
C           -1.69903728166741        2.13396955210964       -0.89150828744778
C           -2.50829779071652        2.82252474129681        0.16969926241270
C           -3.34905385564587        4.00531055549585       -0.22580981147774
C           -3.34204577184542        4.22983216040590       -1.71163993371509
C           -1.96360574734063        4.14487272212141       -2.34547224319388
N            0.74388434306666       -0.71712901986238       -1.24915693753224
C            1.22878221841233       -1.35935902422139       -2.45573945338993
C           -3.76808486481954        0.76830835774122       -0.95660823292057
C           -5.22466149674329        1.15752194420449       -0.91714107576769
C           -5.94431360431730        0.28438674435660        0.07343744169758
C           -5.33578720009941        0.10271608818935        1.43682176093866
H            3.95194698380720       -4.91043713468566       -0.82177013044333
H            2.74465154052139       -4.30822879611648       -1.93227395893166
H            2.35193801240893       -5.61398214060866       -0.76300796107856
H            3.36511175585600       -2.81930010480161       -0.05243387183848
H            3.12001842788243       -3.49864681515680        2.24776059062110
H            4.20688696400373       -4.52042297624846        1.27350812336008
H            2.64622350393855       -5.19026910437724        1.69757622368017
H           -0.64702719063808       -2.95991025791527        0.34409406533032
H            0.02355031583498       -5.78899849147362       -0.29435128541674
H            0.38961323946627       -4.52525292620276       -1.56592164081521
H           -1.22125193123348       -4.73186986657387       -0.91785275193006
H            0.77825416006137       -3.94748106520450        2.49336157939384
H           -0.96268213501180       -4.00028374591189        2.28462741742525
H           -0.04602968857090       -5.41664950495939        1.81722050417136
H            2.17819443425471        2.93407871304202        0.06501578467694
H            3.17275437095692        4.66509781955620       -1.35925514652754
H            5.61929310323972        4.85363027794552       -1.54473956938775
H            7.12780577116908        3.28824127220960       -0.28846633965570
H            0.30461356133252        0.02386364723430        3.57234738637615
H            1.83224641383755       -0.61558515764566        3.03645619918619
H            0.60376032794449       -1.76521396374200        3.49972525180851
H           -1.39172087313481       -1.34447168798241        3.37551281213148
H           -3.87509069843832       -1.02219951704674        3.29318377889046
H            1.11713939254247        0.75694585099868       -3.21061070455350
H           -0.01408110580709        2.93974484185130       -3.70376374135631
H           -2.68297454708045        2.40330635452445        1.16887038593710
H           -1.61441087669974        3.41081232557773        0.58371373851307
H           -2.97862309155749        4.91907451030719        0.26312566294873
H           -4.40519720376735        3.95761401292327        0.12740398859138
H           -3.98633234781532        3.52296340530176       -2.25821765947146
H           -3.73160539813713        5.24159737501995       -1.91689892579752
H           -1.28834665986186        4.94879214661206       -2.02076700350511
H           -2.09657026734442        4.20270901627242       -3.42473181615483
H            1.31448656877083       -2.43914205113287       -2.30429332159324
H            2.23036103936184       -1.00935250474749       -2.76416043137090
H            0.50346171943804       -1.23585780182512       -3.28258319281957
H           -3.25332146246630        0.92265278427841       -1.90715160519138
H           -3.97055320165578       -0.32621479227110       -1.24748739906171
H           -5.66258201607134        0.88231397708283       -1.90634779486136
H           -5.48454160821061        2.21932177797654       -0.84313876343285
H           -6.93996226575360        0.72627706168856        0.21657901727638
H           -6.08943223203011       -0.72345286775599       -0.36546341573810
H           -5.56710112384143        0.91400665259202        2.14062766417936
H           -5.73553990647988       -0.82809390333871        1.86205573568176
88
 energy: -129.008816873289 gnorm: 0.087558588419 xtb: 6.7.1 (edcfbbe)
C            2.89287974165388       -4.67730509273802       -0.92546672047970
C            2.65480684209726       -3.63961909404584        0.15948572288446
C            3.16096824543950       -4.25155762500298        1.46429653565933
N            1.35577578091804       -2.99349015969423        0.23789726036189
C            0.11444688481906       -3.72333787405175        0.43912328298371
C           -0.17095872180013       -4.76068315890317       -0.65167288516538
C           -0.02376648664726       -4.31688183041872        1.84761272455978
P            1.20071488712753       -1.32463763487799        0.29492745616647
Se           3.28479856012436       -0.72209956491476        0.63764649122330
S            3.27598297444737        1.05937639216780        1.81466771918009
C            4.06946925552394        2.18080988685865        0.67164942153527
C            3.24756627126368        3.03238315616906       -0.03177180504050
C            3.82901797173147        3.99769438643583       -0.83156187846253
C            5.20884362206830        4.09013792840165       -0.91922881855472
C            6.03674666558505        3.22254242314861       -0.22409888770438
C            5.45589898306856        2.25447103949306        0.58572185792524
C            6.28996975626072        1.27807783181939        1.35245200011838
F            7.60058197217445        1.49382290941524        1.16863475525036
F            6.04546521939268        1.29530997092125        2.67041818184277
F            6.04288674746724       -0.00474010148961        0.93531791556402
N            0.26479520619343       -0.77076615831756        1.59075489714404
C            0.77936473471318       -0.80000275460386        2.96230739760521
C           -1.12073386545330       -0.44395857883203        1.49751024179033
C           -1.90860730107833       -0.87186643023456        2.56191757401434
C           -3.26090944269948       -0.65982463691748        2.50610973515297
C           -3.86408457628865       -0.06161226603361        1.41173544430817
C           -3.10339470585878        0.36738767405714        0.34043171413638
C           -1.70666408379850        0.20280118423080        0.42742624355948
C           -1.03957853675453        0.91421998666830       -0.65400040313192
C           -0.02872247810932        0.44815603193569       -1.47039010778317
C            0.34088686727241        1.18178183399282       -2.59540808387626
C           -0.31126103132508        2.36054069955453       -2.86393346104803
C           -1.29822854713436        2.85595587068183       -2.02790160699266
C           -1.65974355695200        2.15577052082971       -0.89001444057052
C           -2.40597570234138        2.90146005883941        0.19248644194739
C           -3.36346935017083        4.02681029197045       -0.22846390348009
C           -3.35121678249693        4.24886316695596       -1.72923279252348
C           -1.96209508058964        4.15182550605750       -2.34900991028182
N            0.71503695595317       -0.74328447287143       -1.22416110181284
C            1.22638868666725       -1.38870417062667       -2.43402980839104
C           -3.80373358955885        0.64716315801810       -0.96814364657048
C           -5.24288777428769        1.14884871173685       -0.93304241008345
C           -5.98779330316754        0.28570013088364        0.07528198122086
C           -5.34483763324975        0.09742414554206        1.44104054140868
H            3.94938948456145       -4.91970189997021       -0.84284619637189
H            2.72868238722046       -4.30798174733775       -1.93420214278864
H            2.34381638617238       -5.60171571846307       -0.76633997514366
H            3.36429059382039       -2.83236123041022       -0.07225599935504
H            3.11593561519902       -3.51506413112727        2.26260026235601
H            4.20293381737252       -4.51410776999662        1.29616517320926
H            2.63772323985292       -5.17163634802453        1.71077970352813
H           -0.65592625402245       -2.94637154719566        0.33977416723829
H            0.04049169567391       -5.77380650147639       -0.31106845760506
H            0.38531938756271       -4.53698148609692       -1.55729699397457
H           -1.22477958172069       -4.73323952634087       -0.91216030859147
H            0.77351885532564       -3.96068789803039        2.49295700230334
H           -0.96719136082504       -4.00332088669018        2.28572040762734
H           -0.02875623049830       -5.40476936945208        1.82504935035322
H            2.17739213385282        2.93827624305216        0.06254870010972
H            3.18237170642542        4.67249667005375       -1.36708044855115
H            5.63034409693114        4.85734820751629       -1.54590226201907
H            7.11381729110601        3.29068392173339       -0.29113288479805
H            0.31045705025210        0.00437629312086        3.54611303915082
H            1.85015549499895       -0.61687803925230        3.01355413863614
H            0.60241393458607       -1.75397414427880        3.47983237364796
H           -1.42411197481378       -1.35999016304813        3.38422150043072
H           -3.88304402697282       -1.01905236773611        3.30752382941346
H            1.12364327233074        0.79348070908787       -3.21919840026843
H           -0.01623926525222        2.94330317685937       -3.71987244084859
H           -2.73235202286389        2.36836516864462        1.12993802869972
H           -1.55801251665693        3.44589837618264        0.59958565275216
H           -2.99013499820936        4.93064423967056        0.25729166760157
H           -4.39524343989044        3.92399466455483        0.12117582572051
H           -3.98672438525737        3.52220127500031       -2.24433417394118
H           -3.74700364533930        5.24226363182425       -1.92707782696290
H           -1.30379201676631        4.96113000571613       -2.01996681800830
H           -2.08305656519891        4.21951793668383       -3.43083212256878
H            1.31924994024272       -2.45878159506669       -2.28548630444741
H            2.21227674535621       -1.01030823732000       -2.74734980482606
H            0.51596602302858       -1.24062913695175       -3.25679254208410
H           -3.23402938564499        0.98922857337771       -1.87558487010770
H           -3.97578773936938       -0.39090851421065       -1.26311401986578
H           -5.66413106923509        0.90062691313981       -1.91132330087325
H           -5.44313017329324        2.21835103042968       -0.80519437926860
H           -6.97117812933865        0.71559697226944        0.21698003603870
H           -6.10036458271815       -0.71231918652933       -0.36447824818379
H           -5.57611955881354        0.91862839021838        2.12767499175183
H           -5.75371251137214       -0.81678824634066        1.87608720529415
88
 energy: -129.041855154239 gnorm: 0.055729836771 xtb: 6.7.1 (edcfbbe)
C            2.89637646762675       -4.68763987553099       -0.93803967037526
C            2.66807282278896       -3.64724426207544        0.15510568261641
C            3.16408879550933       -4.24770480064876        1.46861578934387
N            1.35716619581683       -2.98827067368419        0.23119381145293
C            0.09446344711341       -3.71611918296146        0.43428316373418
C           -0.18679148239867       -4.75669636701613       -0.65706098893569
C           -0.03456003856686       -4.31073154989708        1.84877637612732
P            1.21843858485294       -1.32536284264007        0.29789644704656
Se           3.35694337725979       -0.72505524509791        0.65019533590913
S            3.23770390937875        1.09606606058116        1.83417162719204
C            4.05707824438164        2.19732583534943        0.69316565538459
C            3.24630963168039        3.04690624648323       -0.03369207731763
C            3.82878750775802        4.00541430093617       -0.84230121548054
C            5.20800033640489        4.09816774638658       -0.92691031217797
C            6.02483979175787        3.22464351130526       -0.22629775994450
C            5.44523223577336        2.26416223240167        0.59238411522326
C            6.29482386940923        1.28264185283136        1.35081581311226
F            7.59592243734959        1.48172688626819        1.17621663019736
F            6.06718707061842        1.29294508083551        2.66548400221716
F            6.04663932429008        0.00595845245310        0.94161218738585
N            0.28642121768816       -0.75686066838911        1.56038555883617
C            0.80269924436548       -0.80029623014233        2.93805348111974
C           -1.11865597598348       -0.47615455583997        1.48322190308386
C           -1.91839907827693       -0.89248904169461        2.54894100698894
C           -3.27073622679547       -0.66447263782570        2.51748315475188
C           -3.88088780595091       -0.08651344702132        1.41009277372975
C           -3.11244730757708        0.31402623817489        0.33437148841049
C           -1.70636701880606        0.17975747293684        0.41463394922124
C           -1.02267345131952        0.92471493447647       -0.63700618949839
C           -0.00740669762101        0.45695049275265       -1.45210242968812
C            0.35501595778327        1.19857872063939       -2.57965939667112
C           -0.30677584456212        2.36742315867994       -2.87414481126713
C           -1.28315397427944        2.87509356940214       -2.02766492370985
C           -1.61714545493428        2.18484497117991       -0.87662915580240
C           -2.33959313398368        2.95500456464347        0.20503523828160
C           -3.34449081453604        4.04649593725609       -0.23275430903931
C           -3.35392397728963        4.26011844028149       -1.74194990893633
C           -1.95989858517572        4.16690446006396       -2.35527348511922
N            0.67745785404867       -0.77427473950909       -1.19899273614451
C            1.21827666415820       -1.41652435971323       -2.40475255816429
C           -3.82479512008313        0.56102775164180       -0.97701747183688
C           -5.24706885403030        1.12059484161603       -0.93224553084811
C           -6.02703553619619        0.27527483677792        0.07654813471669
C           -5.36389926704224        0.09248348667932        1.44212563644073
H            3.95001756812888       -4.93623810632446       -0.87637987600481
H            2.70532441489401       -4.30723469009268       -1.93789325831234
H            2.33091123341289       -5.59680327485244       -0.77067630169434
H            3.36653723172205       -2.84133578691489       -0.09808784849470
H            3.10515380547449       -3.52455411119957        2.27839637032985
H            4.20675437210316       -4.51093910702475        1.32685341869283
H            2.62494610892150       -5.15465699479809        1.72437349916861
H           -0.66546878969769       -2.93137725805626        0.33319704315470
H            0.05902932826414       -5.76149706653308       -0.32371081795146
H            0.37338882774722       -4.53776810223773       -1.55842153038521
H           -1.23995345716779       -4.73909972628843       -0.90701661772672
H            0.76598168421937       -3.96255496205856        2.49162773585518
H           -0.97910473505871       -4.00826573301656        2.28815511069452
H           -0.01209877757132       -5.39650429947822        1.82741482542369
H            2.17574494543983        2.95257725139613        0.05759526971382
H            3.19155702845297        4.68388805172877       -1.38360682723358
H            5.64436392727136        4.86199401236842       -1.54886247385980
H            7.09999323785118        3.29042124360191       -0.29456526123992
H            0.32363291627293       -0.00523345199745        3.51327170026417
H            1.87318390019437       -0.62495107595565        2.97912991343566
H            0.60714023966554       -1.75184054257250        3.44319593829301
H           -1.45955342249928       -1.38368420714829        3.38808036206275
H           -3.88820449274147       -1.00530259036639        3.33225060260511
H            1.13809846923549        0.83494416099704       -3.22135687846737
H           -0.02312501826557        2.93751617112837       -3.74480293419511
H           -2.72847996106620        2.37754061310658        1.07805676882446
H           -1.50574901876720        3.49417290724480        0.63449951882528
H           -3.00597306928421        4.96154402467419        0.25086028560656
H           -4.36513833749041        3.87346880357955        0.11825975942126
H           -3.98701232577739        3.51582853000250       -2.23039383389444
H           -3.76727092885787        5.24419461617733       -1.94599718598867
H           -1.32185269650607        4.98612268498929       -2.01534208067041
H           -2.06308144201483        4.24313301292660       -3.43957658986466
H            1.32261160826311       -2.48400352574832       -2.25215895817180
H            2.19535127920411       -1.01509993418004       -2.70783507375368
H            0.51850087025405       -1.25777271868556       -3.22746918188642
H           -3.23849143926546        0.99827149306590       -1.82735917054191
H           -3.98154876525255       -0.46173415263158       -1.30317569960998
H           -5.67637057044098        0.92643223876348       -1.91656167484421
H           -5.37311692438786        2.19850261369976       -0.75264973397049
H           -7.01157130582544        0.70326598107743        0.21885595199364
H           -6.13218770086459       -0.71582553974330       -0.36431366469603
H           -5.58593945420515        0.93111878488119        2.10955276788447
H           -5.78817170639143       -0.80350184085000        1.89827559964071
88
 energy: -129.060762050465 gnorm: 0.036256628669 xtb: 6.7.1 (edcfbbe)
C            2.88987398244802       -4.69526242427383       -0.94624762745036
C            2.67743991925707       -3.65220708682517        0.15090079330950
C            3.16247306986152       -4.24149426051251        1.47288132640704
N            1.35894862877991       -2.99005911916779        0.22314746125405
C            0.08306056590489       -3.71076456603667        0.43033189159511
C           -0.19856704662928       -4.75041836036653       -0.66009783671266
C           -0.04382047243169       -4.30382564250985        1.84550188119895
P            1.23059856164968       -1.32951867915597        0.29679351037624
Se           3.40166300607596       -0.72033727901462        0.67534050863354
S            3.21556295679929        1.12808212024373        1.84150166812027
C            4.04736299384402        2.22123137268288        0.70931787643870
C            3.24618724806664        3.06990735175987       -0.03420218480116
C            3.82995427119766        4.01950564402643       -0.85189661563762
C            5.20913328170877        4.10808029915700       -0.93406406429888
C            6.01516532761052        3.22992194483132       -0.22655454799644
C            5.43631599797364        2.27732248789217        0.60062189286747
C            6.29792666596265        1.29296552676685        1.35199405157824
F            7.59681628254430        1.48541764777027        1.17513322528596
F            6.08000288337445        1.29664122292592        2.66866717063388
F            6.05061831306257        0.01754433145517        0.94282016441716
N            0.29562292305372       -0.74077391681352        1.53450284037673
C            0.81833667065413       -0.80183026279850        2.90998559444729
C           -1.12305891088310       -0.49965292386384        1.46979281479610
C           -1.92582312653123       -0.91889267166265        2.53233973721894
C           -3.27961935410218       -0.67676017734462        2.52149950688023
C           -3.90034980439685       -0.11926364099593        1.40590182185043
C           -3.12690418061403        0.25695806479459        0.32113690697149