89
 energy: -125.140280651250 gnorm: 0.135337623016 xtb: 6.7.1 (edcfbbe)
C           -4.23319100000000        1.75677700000000        1.73982300000000
C           -3.57048800000000        1.42816700000000        0.40298200000000
N           -2.45318300000000        0.47276100000000        0.53874800000000
C           -2.80861200000000       -0.91759100000000        0.08671200000000
C           -4.12891700000000       -1.41668000000000        0.77698800000000
C           -4.54344700000000       -2.82021400000000        0.29824500000000
C           -4.75817500000000       -2.78732300000000       -1.22181000000000
C           -3.45640000000000       -2.37782400000000       -1.92538700000000
C           -2.35091800000000       -3.38036000000000       -1.57479600000000
C           -2.13856300000000       -3.40657200000000       -0.05631900000000
C           -3.43883900000000       -3.82563900000000        0.63674600000000
C           -1.74061200000000       -2.00169100000000        0.43386900000000
C           -3.03690100000000       -0.97343500000000       -1.45450700000000
P           -0.93593000000000        1.11062700000000        0.79480300000000
S           -1.00734600000000        3.10169600000000        1.55839600000000
S            0.94544600000000        3.73246000000000        1.55264400000000
C            1.16422100000000        4.43593300000000       -0.06663000000000
C            2.14225800000000        3.91318500000000       -0.91724500000000
C            2.33998500000000        4.45902800000000       -2.18788900000000
C            1.56801600000000        5.54124600000000       -2.60940600000000
C            0.60233800000000        6.07942400000000       -1.76088300000000
C            0.40410800000000        5.53191100000000       -0.49111700000000
N           -0.08528200000000        1.05249300000000       -0.60924100000000
C           -0.62647300000000        1.90505400000000       -1.66614400000000
C            0.75721200000000       -0.00821300000000       -1.03243000000000
C            0.61202200000000       -0.54631200000000       -2.32978600000000
C            1.34758600000000       -1.63812100000000       -2.77468300000000
C            2.24118300000000       -2.27150600000000       -1.92395200000000
C            2.91986200000000       -3.41923900000000       -2.36982900000000
C            3.79735700000000       -4.10360000000000       -1.53501800000000
C            3.99259900000000       -3.65276000000000       -0.24102600000000
C            3.32725200000000       -2.50693400000000        0.20336000000000
C            2.45086100000000       -1.75338400000000       -0.62365600000000
C            1.77412800000000       -0.54484200000000       -0.19029500000000
C            2.18464000000000        0.12561200000000        1.01129400000000
C            1.26661400000000        0.35559000000000        2.07176400000000
C            1.76264600000000        0.79259500000000        3.31908700000000
C            3.10785300000000        1.07840700000000        3.52349700000000
C            4.01132200000000        0.97744600000000        2.47591200000000
C            5.35256000000000        1.33923200000000        2.69069100000000
C            6.28251200000000        1.29287400000000        1.65709100000000
C            5.87637400000000        0.89661800000000        0.39430900000000
C            4.54469500000000        0.52845100000000        0.17835600000000
C            3.56669500000000        0.52445200000000        1.21020500000000
N           -0.13164700000000        0.14353600000000        1.86928700000000
C           -0.89542400000000       -0.06486500000000        3.10541700000000
H           -4.70348300000000        0.88155300000000        2.19483500000000
H           -3.52837600000000        2.16540500000000        2.46416600000000
H           -5.01616300000000        2.50657800000000        1.58537400000000
H           -4.34704600000000        1.08875400000000       -0.28915000000000
H           -3.21299800000000        2.35348300000000       -0.06215500000000
H           -4.97251800000000       -0.75074100000000        0.56670900000000
H           -3.99680400000000       -1.43017000000000        1.86627000000000
H           -5.47402300000000       -3.11733100000000        0.79592000000000
H           -5.08324900000000       -3.77357900000000       -1.57619800000000
H           -5.55905100000000       -2.08162400000000       -1.47269800000000
H           -3.61409200000000       -2.36725700000000       -3.01023000000000
H           -2.62441200000000       -4.38029100000000       -1.93307100000000
H           -1.41864600000000       -3.10559700000000       -2.08168200000000
H           -1.34392700000000       -4.12038300000000        0.19106500000000
H           -3.73189300000000       -4.83141800000000        0.31245000000000
H           -3.29046300000000       -3.87168200000000        1.72252500000000
H           -0.78041000000000       -1.76245700000000       -0.01434600000000
H           -1.58678100000000       -2.06752000000000        1.51371200000000
H           -2.12552500000000       -0.69098900000000       -1.98175100000000
H           -3.80684500000000       -0.26432600000000       -1.77505500000000
H            2.74890900000000        3.06649100000000       -0.60124000000000
H            3.09880400000000        4.03915700000000       -2.84277200000000
H            1.72659500000000        5.96978300000000       -3.59516600000000
H            0.00626900000000        6.92976900000000       -2.08097400000000
H           -0.34422000000000        5.96664800000000        0.16595500000000
H           -0.99784200000000        2.85451900000000       -1.27404200000000
H           -1.47317900000000        1.43288600000000       -2.17166400000000
H            0.13553400000000        2.15947100000000       -2.41070100000000
H           -0.11601200000000       -0.14173900000000       -3.02608500000000
H            1.17472500000000       -2.01197400000000       -3.78028400000000
H            2.76066700000000       -3.79670000000000       -3.37749000000000
H            4.31212800000000       -4.99054200000000       -1.89076000000000
H            4.65731700000000       -4.18518100000000        0.43317600000000
H            3.49491900000000       -2.20798600000000        1.23664600000000
H            1.10437300000000        0.96752800000000        4.16424700000000
H            3.42325700000000        1.42860900000000        4.50336400000000
H            5.67976600000000        1.67420700000000        3.67282800000000
H            7.31433900000000        1.57942800000000        1.83812000000000
H            6.58583100000000        0.87241600000000       -0.42839400000000
H            4.26879300000000        0.24799800000000       -0.83661000000000
H           -0.43606800000000       -0.84266600000000        3.72725300000000
H           -0.99706600000000        0.85696600000000        3.68820600000000
H           -1.91313100000000       -0.40797000000000        2.90152100000000
89
 energy: -125.160973327891 gnorm: 0.059534762111 xtb: 6.7.1 (edcfbbe)
C           -4.23003027269441        1.76162638724823        1.74711206187188
C           -3.56215219706962        1.43207687689303        0.41698843843788
N           -2.47201954921033        0.44149149715871        0.52996368601710
C           -2.82321491839754       -0.95135375338160        0.08106853033401
C           -4.12972190544139       -1.41114474107327        0.77892473633600
C           -4.52783489285117       -2.81184949022801        0.29215708674634
C           -4.75602841257876       -2.78493571069116       -1.21996521813312
C           -3.45391895428525       -2.37664204547935       -1.90994974983001
C           -2.34994196574566       -3.37764833535495       -1.57407516792529
C           -2.14651227047284       -3.38818910509220       -0.06010036749134
C           -3.43618713482596       -3.82244054020462        0.63442335851009
C           -1.73329064192884       -1.98994914307842        0.42968293913835
C           -3.03492014852614       -0.97408155510450       -1.44963351547398
P           -0.93629883948907        1.04643793600977        0.77565922625243
S           -1.04129650956548        3.08146985906948        1.48428906089633
S            0.92583277882421        3.69110406649466        1.52216565197193
C            1.15946436489613        4.43205304985518       -0.08402010151875
C            2.13419899229763        3.90520881573482       -0.92328363506097
C            2.33642035109227        4.45967469718642       -2.17882233483877
C            1.56810307343364        5.53695927956577       -2.59734652075729
C            0.60525032108476        6.07118869875861       -1.75262160480185
C            0.40433968745863        5.52714729826486       -0.49275317626834
N           -0.05593382127665        1.04401276282584       -0.62417976044597
C           -0.61789459258456        1.90434523192391       -1.66619497423398
C            0.78475541967825       -0.02233106190021       -1.04180294026411
C            0.60343641677473       -0.55710114128736       -2.32949127911719
C            1.33267287963641       -1.63030251785828       -2.77492665654636
C            2.24199152409984       -2.27200483519105       -1.92697808982474
C            2.92341858812655       -3.42280163258410       -2.36518218008749
C            3.78944970352355       -4.08983747556905       -1.53279223531408
C            3.97826265434607       -3.62533406451944       -0.23207177697550
C            3.33195246569726       -2.48720293141258        0.21027195628977
C            2.46258655423669       -1.74766662548754       -0.62442484065579
C            1.78386398707779       -0.54655105826609       -0.20703310887269
C            2.19050272279045        0.12312068497506        1.02547599408169
C            1.28251267986351        0.36521214141299        2.06791329460470
C            1.75689793288511        0.81863295338811        3.31217544275584
C            3.08683222256479        1.08515881980349        3.52360072926802
C            4.00903768499330        0.97839267044301        2.47702398318306
C            5.35387017437191        1.33927124492546        2.68425928203004
C            6.26535224327181        1.28803751057415        1.65735653818358
C            5.84325975478368        0.88715864835988        0.39074947444225
C            4.53064160331045        0.51335094383702        0.17207384455813
C            3.56694743494745        0.51486286404817        1.20806805694492
N           -0.11877834312267        0.11486448787283        1.87884299879610
C           -0.89465333983837       -0.07090065119005        3.10912960700707
H           -4.69536390519912        0.88357813575799        2.19009981924219
H           -3.51347549242414        2.16635755582900        2.45926094112619
H           -5.00739661752645        2.50829669976529        1.58609739916818
H           -4.32418859433405        1.06940302609492       -0.27602470783438
H           -3.18394714694441        2.35863914071530       -0.03286588756159
H           -4.96021072937666       -0.73805990333555        0.56071608276634
H           -3.98402377535696       -1.42734388834055        1.86282371486904
H           -5.45823949717455       -3.10072625120532        0.79228734408940
H           -5.07298384584000       -3.77049163305320       -1.57059483899968
H           -5.55324427580613       -2.07877079987604       -1.46909267397071
H           -3.60954222928697       -2.35785774579531       -2.99390757015190
H           -2.62771453662719       -4.37484400290999       -1.92528625276730
H           -1.41875066862513       -3.09904934899502       -2.07614142672668
H           -1.34678336231094       -4.09335060107900        0.19031427339350
H           -3.72931615892827       -4.82271775376636        0.30544094674943
H           -3.28804648962188       -3.86543017897514        1.71732073093963
H           -0.77721583954357       -1.73050386764891       -0.02552979920794
H           -1.59092341952342       -2.04666574914534        1.50943784032490
H           -2.11101045474813       -0.69661308799130       -1.96060442981429
H           -3.80692648986877       -0.26157806308879       -1.75354520587577
H            2.74012480537313        3.06855865882208       -0.59771827573862
H            3.09287219607049        4.04411064443671       -2.83005150106500
H            1.72427740504189        5.96366661067659       -3.57910367105094
H            0.01269327720725        6.91803650102907       -2.07023510861807
H           -0.34200134375651        5.95299826897100        0.16528398220136
H           -0.98279645825371        2.84490446508979       -1.24282562665684
H           -1.46331736946405        1.43454825891139       -2.17790908574827
H            0.14921666091124        2.15536180427036       -2.40017993249051
H           -0.11570082043607       -0.13114336426993       -3.01427078984713
H            1.17383419099790       -1.99570890708747       -3.77974925689682
H            2.75650016200840       -3.79310795356378       -3.36781245793352
H            4.30550219002590       -4.97428550683654       -1.88232524645870
H            4.63674048662052       -4.15972991704494        0.43943077127507
H            3.49259044036065       -2.18033099554619        1.23548239484894
H            1.09139515743004        0.96423200504868        4.14993547354006
H            3.40908638394510        1.41538883007444        4.50140413741234
H            5.67149512983930        1.67255207184561        3.66324081230017
H            7.29543212092997        1.57112534525352        1.83160476412568
H            6.54956784053562        0.86753510855754       -0.42871873050748
H            4.24734573661725        0.22965084907954       -0.83343447392543
H           -0.41917096508759       -0.83662572956492        3.72363007403022
H           -0.99216031214956        0.85195827545366        3.69006463341542
H           -1.90544889186241       -0.40856201823862        2.87232506980990
89
 energy: -125.168060583722 gnorm: 0.016616675788 xtb: 6.7.1 (edcfbbe)
C           -4.21784074100193        1.76480393339418        1.75951945971448
C           -3.55219870061732        1.44129992221918        0.42887198319450
N           -2.48224114659675        0.42954528861086        0.52752390144854
C           -2.83349208639060       -0.96267725636096        0.07778146432235
C           -4.12255493824862       -1.41461517167741        0.77331802301464
C           -4.52739998709668       -2.81150384062803        0.29273000862362
C           -4.74992005533732       -2.78269372646334       -1.21689077792419
C           -3.45370590093244       -2.37588713096648       -1.91164411164418
C           -2.34827526026526       -3.36969391442817       -1.57091075370465
C           -2.13858418997957       -3.37909738866452       -0.06080665284891
C           -3.42794627571561       -3.81058318671002        0.63224631673525
C           -1.74017135617179       -1.97666624728371        0.42361475694231
C           -3.03665706680674       -0.98024753106120       -1.44157728548949
P           -0.93245015033679        0.99810559898986        0.75578803564772
S           -1.07051629883983        3.03855708248437        1.42433451594835
S            0.89312376764831        3.63296604119605        1.49245367124546
C            1.14661363515061        4.41182973886644       -0.10051476268473
C            2.12936489966194        3.89031682228856       -0.92693152995220
C            2.33684543506265        4.45653971138608       -2.17178944096797
C            1.56891133181457        5.53184311155005       -2.58594132484741
C            0.60624614083808        6.06166285973335       -1.74200654207327
C            0.39583003999298        5.51017111413928       -0.49155942632418
N           -0.01824973699052        1.05204302450859       -0.63486545256545
C           -0.59878782675068        1.91066902556497       -1.66785091836318
C            0.80669921813423       -0.03053657712615       -1.04934241979060
C            0.59876099685450       -0.56161981469523       -2.33489937124833
C            1.32348571864682       -1.62433376981334       -2.77847607563808
C            2.24253144010583       -2.26872345213952       -1.92983124989053
C            2.92696598342883       -3.42339824988222       -2.35758037615029
C            3.78542415085397       -4.07456497668590       -1.52192524436830
C            3.97058679207569       -3.59457633126495       -0.21745251932292
C            3.33628221677633       -2.46215308927933        0.21833378586497
C            2.46827222424519       -1.73912033701356       -0.62723729927860
C            1.78715379888850       -0.54523830657492       -0.22216328620719
C            2.18802287180148        0.12380400865010        1.03575338973383
C            1.29224676839492        0.36907216764169        2.06226860047761
C            1.74818051192007        0.83269677875021        3.30909652518481
C            3.06713147823356        1.09192927394129        3.52270047823776
C            4.00036238351812        0.98010376670557        2.47613528553804
C            5.34934952746091        1.33710045135918        2.67490588751900
C            6.24536199760124        1.27921068640239        1.64862404564323
C            5.80905463937741        0.87103665839257        0.38011292265074
C            4.51009642968226        0.49527761976855        0.16357382106655
C            3.55835731333083        0.51074822000108        1.20660015575146
N           -0.11035744339504        0.09485278737330        1.88480371037931
C           -0.89353788727971       -0.07871445646312        3.11165161340120
H           -4.68188136781639        0.88634557315836        2.19561600871597
H           -3.49470410565960        2.16787933197460        2.46351916913149
H           -4.98928541226939        2.51114405583218        1.59316545285949
H           -4.30213918400788        1.06945065561298       -0.26938434693998
H           -3.14947088646735        2.36452362780079       -0.00268247867403
H           -4.94380559775016       -0.73603167766207        0.55333985253107
H           -3.96930421951571       -1.42985060992354        1.85376939500397
H           -5.45757511430334       -3.09577855867016        0.79617119902037
H           -5.06097411120955       -3.76791509620752       -1.56382821263214
H           -5.54577162451010       -2.07794337300407       -1.46558501183954
H           -3.60800798516488       -2.35099016648753       -2.99578078500630
H           -2.62714321787939       -4.36605169286305       -1.91444317814957
H           -1.41961826754368       -3.08957644162052       -2.07298160496941
H           -1.33212427863039       -4.07560771589481        0.19326807594191
H           -3.71738220231869       -4.80689595685824        0.29776037762637
H           -3.28095915254988       -3.85485699789693        1.71308123018390
H           -0.79153334832308       -1.69548598829343       -0.04007645500891
H           -1.59482039308658       -2.02602079761669        1.50140184530243
H           -2.10177126221866       -0.70533808116034       -1.93400544960777
H           -3.80410166124988       -0.26249643379008       -1.73737433561243
H            2.72727301070445        3.05499136998238       -0.59537988283332
H            3.09523638102335        4.04877191160953       -2.82101033708157
H            1.72508044051801        5.96174863954594       -3.56296445098704
H            0.01833652305985        6.90954345728945       -2.05591630775256
H           -0.34760196175409        5.92739073109067        0.17090702852975
H           -0.95519417827080        2.84043771152762       -1.21685386697218
H           -1.44707909524088        1.44527901307014       -2.17887646762864
H            0.17010451026664        2.15937497588070       -2.39620718609845
H           -0.12201588931606       -0.12041571021120       -3.00287420800225
H            1.17457897013947       -1.99538191120899       -3.77977742690521
H            2.75010621912772       -3.78847834079709       -3.35753396444507
H            4.30415770974615       -4.95908873246089       -1.85886233662315
H            4.62192877952357       -4.13318399498439        0.45340978644485
H            3.49208913439680       -2.13644185206239        1.23482792325550
H            1.06822745466086        0.97668722895206        4.13042592944025
H            3.40074822579369        1.41280743771770        4.49637841352161
H            5.65723298426091        1.67087111587601        3.65371456520106
H            7.27526701266743        1.55991231906026        1.80978090982143
H            6.51279499652741        0.85878999051746       -0.43816619034616
H            4.21411196215619        0.20111103319450       -0.83169606161849
H           -0.41293304442109       -0.83995146291894        3.72231894765700
H           -0.98825887177548        0.84414812084928        3.69129862498933
H           -1.89819254406580       -0.40697164668572        2.84756127355631
89
 energy: -125.170045851080 gnorm: 0.014617904555 xtb: 6.7.1 (edcfbbe)
C           -4.20294632428028        1.76477492686438        1.77193476013674
C           -3.54613143179735        1.44399121478428        0.43622228810668
N           -2.48350606887656        0.42587962787232        0.52662447803356
C           -2.83797208187213       -0.96279394897322        0.07580192466944
C           -4.12360316443320       -1.40978733079010        0.77520702454908
C           -4.51937419013084       -2.80846250424429        0.29272003132406
C           -4.74640710649583       -2.78308157679348       -1.21648139933491
C           -3.45054182080999       -2.37129820056449       -1.90956811127148
C           -2.34128840977786       -3.36267067309696       -1.57230929659679
C           -2.12994069176630       -3.36535474036349       -0.06228169136612
C           -3.41647483048522       -3.80442283885416        0.63264800998663
C           -1.73498464293892       -1.96182275046654        0.41967332177144
C           -3.03644678101549       -0.97442433701133       -1.44207317254653
P           -0.93273593725396        0.98116043278254        0.74216848973344
S           -1.09369187889233        3.01233396707073        1.39923315682982
S            0.87455177468574        3.57979411888768        1.48024107865726
C            1.13093316496559        4.37544158272488       -0.10738530313511
C            2.12226992522120        3.86435010447398       -0.93002952379572
C            2.33941015478322        4.44800835049160       -2.16652663537092
C            1.57167644568231        5.52712576868362       -2.57275423428606
C            0.60340557448058        6.04768173121148       -1.72861412673445
C            0.38282302184965        5.47989052522002       -0.48568050452110
N            0.00142227708809        1.06504480955633       -0.63911376478733
C           -0.57803967550245        1.92356193605609       -1.67051385151231
C            0.80894121312913       -0.03043308039833       -1.05635096700061
C            0.59610849907303       -0.56271768454573       -2.34288348131458
C            1.32093944353902       -1.62777131698294       -2.78134183762311
C            2.24169569292670       -2.26709403743119       -1.92833394971636
C            2.93014797220629       -3.42340044394820       -2.34686674756001
C            3.78795381541711       -4.06599396130228       -1.50296589512739
C            3.97289626133116       -3.57591356631625       -0.20027995668855
C            3.33844812216306       -2.44207256996362        0.22576819378184
C            2.46611769540181       -1.73382497313046       -0.62862190834705
C            1.78147787889891       -0.54434489532608       -0.22758124757457
C            2.17758193431111        0.12471008283843        1.03589103391089
C            1.28534107539411        0.36955100973112        2.05844460461270
C            1.73622322944177        0.84296508986044        3.30575066696891
C            3.05582806772966        1.10021723021865        3.51803786951634
C            3.98885266910175        0.98158871494065        2.47046575948743
C            5.34016875429406        1.33546405598168        2.66184816576163
C            6.22973333302566        1.27155755977501        1.62962262554686
C            5.78742534523848        0.85838726117869        0.36279666898386
C            4.48936802809164        0.48235363278992        0.15397206145516
C            3.54522316938856        0.50980766616610        1.20417714855751
N           -0.11476038846545        0.08858397152559        1.88255879851875
C           -0.89966413038955       -0.08615598569206        3.10782539892287
H           -4.66756950871413        0.88693754110115        2.20801650441702
H           -3.47473296614397        2.16405782092688        2.47265235359346
H           -4.97111047437366        2.51560099821213        1.61066549805530
H           -4.29722454069763        1.08394746130934       -0.26512474401574
H           -3.13152157582397        2.36606131628243        0.01741820142510
H           -4.94571757078648       -0.73105882832768        0.55672595160637
H           -3.96741259544078       -1.42651847034484        1.85558628547071
H           -5.44698561752993       -3.09687669947838        0.79664701348360
H           -5.05381302136458       -3.77031093810315       -1.56178151075383
H           -5.54448391445747       -2.08056612675962       -1.46483922926015
H           -3.60582122930789       -2.34699865273022       -2.99281302336495
H           -2.61936075401055       -4.36122657525505       -1.91050685678635
H           -1.41483985871279       -3.08142101962174       -2.07793639623489
H           -1.32018414595364       -4.05643988781076        0.19256443994263
H           -3.70063574624123       -4.80167998935981        0.29553523176165
H           -3.26913356075065       -3.84837809862301        1.71341169779497
H           -0.79224816376054       -1.66947369392380       -0.05150533235101
H           -1.58254600477583       -2.00879042039240        1.49641789633109
H           -2.09733416469302       -0.70053007470466       -1.92703092110534
H           -3.80166229380229       -0.25534453502884       -1.73910367101996
H            2.71683697474243        3.02689916146427       -0.59898442911006
H            3.10558711659228        4.05219125129894       -2.81477872545859
H            1.73201015023745        5.96737656619898       -3.54446741621683
H            0.02030059241753        6.90163194298545       -2.03617883082228
H           -0.36317022417411        5.88778818638175        0.17961923127186
H           -0.92663880015019        2.85082027889177       -1.21312952220007
H           -1.42883257092054        1.46375355250152       -2.18156235572870
H            0.19324018220387        2.16975519739247       -2.39715616079804
H           -0.12722197133555       -0.11624656616852       -3.00380585088292
H            1.17687970372501       -2.00791734646679       -3.78061991701576
H            2.75072681643222       -3.79111692863950       -3.34585281892979
H            4.31064650848861       -4.95202202755610       -1.82807786741878
H            4.62457818233072       -4.11133737454031        0.47249005852566
H            3.49284082423788       -2.09615439037070        1.23645908313468
H            1.04784344182245        0.99487839575320        4.11805453477640
H            3.39646573071074        1.42374749615235        4.48878534224155
H            5.64756989813488        1.67082892626277        3.64075723871815
H            7.26177942109759        1.54840281733907        1.77971129771099
H            6.48953978939767        0.84286676860564       -0.45657385248200
H            4.18137257206351        0.17644679976792       -0.83457908433839
H           -0.42074228857077       -0.84940573493430        3.71787329136347
H           -0.99338721427840        0.83551404715277        3.68885259315790
H           -1.90234211153953       -0.41008010233226        2.83708981790219
89
 energy: -125.171402455143 gnorm: 0.009878222133 xtb: 6.7.1 (edcfbbe)
C           -4.18776743653255        1.76347822773300        1.78938307657837
C           -3.54335340432193        1.44914610059116        0.44565197617961
N           -2.48519269068438        0.42825883825995        0.52739938316636
C           -2.84075519717792       -0.95568506352592        0.07417348801800
C           -4.12303170635960       -1.40884898627634        0.77545772955503
C           -4.51130038852954       -2.80981874940876        0.29392670336453
C           -4.73924224985058       -2.78446816457284       -1.21578528786438
C           -3.44656692121378       -2.36595144627024       -1.91260823560207
C           -2.33147029918210       -3.35256767526812       -1.57628063490806
C           -2.11501637772186       -3.35348958697559       -0.06651610097819
C           -3.39893117165815       -3.79738972280399        0.63198765254216
C           -1.73043173762566       -1.94715631719009        0.41142494628079
C           -3.03868869891495       -0.96761882602155       -1.44366973377968
P           -0.93693509905752        0.97466965257640        0.72656617581732
S           -1.09795772961911        2.98965248681671        1.39568875018688
S            0.87530101954507        3.53508167793467        1.47874545687247
C            1.12370151925629        4.33399432130191       -0.10851358793927
C            2.11923082309680        3.83222669164605       -0.93184013425649
C            2.34336992938936        4.43414261297622       -2.15929367195344
C            1.57599620614093        5.51874023502444       -2.55370085047395
C            0.59803209068397        6.02384964026025       -1.71045390102631
C            0.37012748421253        5.43783981578500       -0.47623026800476
N            0.01772379375603        1.08267672687494       -0.64260173301764