80
 energy: -112.344577616821 gnorm: 0.132308074949 xtb: 6.7.1 (edcfbbe)
C            0.64040200000000        3.07562200000000        2.16905300000000
C            2.08461500000000        2.72185200000000        2.40365000000000
C            3.06453300000000        3.70089700000000        2.15978200000000
C            4.41729700000000        3.42660500000000        2.35702100000000
C            4.81128600000000        2.17119000000000        2.80452700000000
C            3.85157700000000        1.18696000000000        3.04421300000000
C            2.48620600000000        1.43924100000000        2.82929500000000
S            1.29938900000000        0.13843600000000        3.16219800000000
S            1.97916400000000       -1.46620100000000        2.07363000000000
P            0.88775600000000       -1.38967500000000        0.26628500000000
N            1.39992600000000       -2.42700200000000       -0.92054500000000
C            2.62502700000000       -3.24291400000000       -0.89069100000000
C            3.90289900000000       -2.41207000000000       -0.76552100000000
C            2.56390400000000       -4.36753300000000        0.14539700000000
C            0.65216100000000       -2.54055600000000       -2.19671100000000
C            0.11764300000000       -3.95036700000000       -2.49490900000000
C            1.45908200000000       -2.04234800000000       -3.40485200000000
N            0.82538700000000        0.12817100000000       -0.38448000000000
C            2.13492800000000        0.72340900000000       -0.63248300000000
C           -0.22378300000000        0.57641900000000       -1.23973500000000
C            0.06179600000000        1.03753000000000       -2.54093700000000
C           -0.93780100000000        1.40089400000000       -3.43707300000000
C           -2.27454700000000        1.29167100000000       -3.07863600000000
C           -3.27026400000000        1.59372300000000       -4.02455100000000
C           -4.62011500000000        1.46294600000000       -3.71236200000000
C           -4.98672600000000        1.01856600000000       -2.45265700000000
C           -4.00114100000000        0.72387500000000       -1.50633200000000
C           -2.61321400000000        0.87222800000000       -1.76955700000000
C           -1.57691800000000        0.58920700000000       -0.79773600000000
C           -1.88849800000000        0.40390500000000        0.58903700000000
C           -1.51685600000000       -0.79735400000000        1.24708200000000
C           -1.97592200000000       -1.03106100000000        2.55872200000000
C           -2.73945600000000       -0.09725200000000        3.24971200000000
C           -3.04871300000000        1.12569000000000        2.66910000000000
C           -3.76842600000000        2.07693100000000        3.41351200000000
C           -4.05957100000000        3.33115000000000        2.88623000000000
C           -3.62273300000000        3.65026800000000        1.61157600000000
C           -2.91222100000000        2.70591100000000        0.86480200000000
C           -2.61954200000000        1.40189800000000        1.34770700000000
N           -0.70269200000000       -1.75425300000000        0.56680900000000
C           -0.90823000000000       -3.13134800000000        1.01271700000000
H            0.03257900000000        2.84438000000000        3.04946000000000
H            0.26035800000000        2.53581700000000        1.29884400000000
H            0.51789600000000        4.14626800000000        1.97119100000000
H            2.77393400000000        4.69183600000000        1.81633000000000
H            5.16085700000000        4.19709300000000        2.17001500000000
H            5.86321100000000        1.95586300000000        2.97199000000000
H            4.18100800000000        0.21514400000000        3.40524400000000
H            2.74427800000000       -3.77080800000000       -1.84401100000000
H            3.99254000000000       -1.89852900000000        0.19190600000000
H            3.96149400000000       -1.66319600000000       -1.56176500000000
H            4.78304600000000       -3.05735300000000       -0.86676300000000
H            1.67779300000000       -4.99283100000000       -0.00670500000000
H            2.55052100000000       -4.00889800000000        1.17410800000000
H            3.43859700000000       -5.02028700000000        0.04453100000000
H           -0.23960200000000       -1.91187200000000       -2.13183600000000
H           -0.45623600000000       -3.94472100000000       -3.42903000000000
H            0.91521400000000       -4.68977400000000       -2.61160500000000
H           -0.55942500000000       -4.30115300000000       -1.71372200000000
H            2.23670700000000       -2.75060800000000       -3.70822900000000
H            1.94472600000000       -1.08570300000000       -3.20462000000000
H            0.79720300000000       -1.89998600000000       -4.26660900000000
H            2.59722500000000        0.33024900000000       -1.54185000000000
H            2.06686600000000        1.81478900000000       -0.70925500000000
H            2.83537400000000        0.51478900000000        0.17749500000000
H            1.08181400000000        1.09138500000000       -2.90693400000000
H           -0.65260600000000        1.73021900000000       -4.43334900000000
H           -2.99760200000000        1.92557100000000       -5.02417700000000
H           -5.37865800000000        1.69413900000000       -4.45443400000000
H           -6.03553000000000        0.89339000000000       -2.19764600000000
H           -4.33624400000000        0.35350300000000       -0.53853800000000
H           -1.71444600000000       -1.93757600000000        3.09519900000000
H           -3.05142000000000       -0.32731200000000        4.26572400000000
H           -4.09954800000000        1.84815900000000        4.42452800000000
H           -4.61209000000000        4.05763400000000        3.47507100000000
H           -3.82497100000000        4.63145800000000        1.19093200000000
H           -2.56545100000000        3.01444300000000       -0.11995300000000
H           -1.97424500000000       -3.38723300000000        1.03351400000000
H           -0.44174900000000       -3.84372800000000        0.33367400000000
H           -0.47102500000000       -3.31982500000000        1.99898300000000
80
 energy: -112.363547569543 gnorm: 0.057043446556 xtb: 6.7.1 (edcfbbe)
C            0.64278019738356        3.06572572348960        2.16895270169671
C            2.08726808035175        2.72255893033689        2.39137501571543
C            3.06537119327886        3.68955991757360        2.16397268557301
C            4.41033382780413        3.41759885003267        2.35998167319501
C            4.80305033792265        2.16544709662296        2.80457331223008
C            3.84874939335077        1.18929596221843        3.03923484145627
C            2.49907565850888        1.45283291642760        2.81245273607008
S            1.29230320625586        0.16043616252568        3.10844908226225
S            2.02125113026866       -1.42730323957306        2.01485424691633
P            0.85533717874401       -1.38977904419612        0.22057089337571
N            1.40400713212359       -2.44736307107421       -0.93853585797185
C            2.63346416040273       -3.25556617667756       -0.88691966868055
C            3.89998979531501       -2.41050656462926       -0.75542757539599
C            2.56391376874659       -4.36561604449446        0.15897337157847
C            0.64241810298503       -2.53867883418879       -2.20365620946118
C            0.11991747552284       -3.95082120449564       -2.48663388568775
C            1.46119224227344       -2.04234126806720       -3.39941298626443
N            0.80913375878372        0.15408072635484       -0.39019324574445
C            2.12996563317210        0.73271166066926       -0.62923501158523
C           -0.24574486533060        0.58758159904939       -1.24942166676083
C            0.05985597056522        1.02433206431572       -2.54921686393450
C           -0.92263974087746        1.39481376379410       -3.43325351136537
C           -2.27341881688987        1.29389331478834       -3.08063390384089
C           -3.27598056882142        1.59219553800489       -4.02248624984778
C           -4.60607081002711        1.46131259502004       -3.70259718295888
C           -4.96254518178576        1.01341186534107       -2.43106641191360
C           -3.99407032656571        0.73087456392334       -1.48757935204549
C           -2.61611291568551        0.88365925583264       -1.76359283763148
C           -1.57741860029031        0.60523684267467       -0.80758236344640
C           -1.90053387107902        0.39992612566637        0.59976189101967
C           -1.52190064830963       -0.77886946624373        1.25437349304523
C           -1.95582526368605       -1.02174285396276        2.56862624382903
C           -2.72201816540436       -0.10928590966519        3.24963700402164
C           -3.04615805375648        1.12371177380238        2.67087791980618
C           -3.76723852316325        2.08107418260620        3.40934453347911
C           -4.05127557394236        3.31635116498328        2.87833709929854
C           -3.60532129760698        3.62591932768421        1.59431090846049
C           -2.90808316343105        2.69527299296746        0.84835560748091
C           -2.62259037817376        1.40137599406152        1.34241886948838
N           -0.73270022522430       -1.75510324612524        0.55899058457197
C           -0.91396666682209       -3.13371970130383        1.01140597367749
H            0.03685455342732        2.82225957098365        3.04142249843624
H            0.24884384782268        2.52096175692431        1.31108293226239
H            0.52777280279236        4.13169682537531        1.97218566276566
H            2.76949008957999        4.67396207612392        1.82707860481169
H            5.14952999622600        4.18518782739337        2.17412773280242
H            5.84829476229268        1.94917531582205        2.97469248269350
H            4.16340916605701        0.21567480165867        3.39412968543765
H            2.71685797444368       -3.76058744981709       -1.85363270012756
H            3.97173891960851       -1.90319482396616        0.20484004209745
H            3.95092864030081       -1.66747302810091       -1.55150894853991
H            4.77245891296946       -3.05591554548283       -0.85697080633687
H            1.67939381919305       -4.98258744643331       -0.00027753743385
H            2.54599655993382       -3.98190172928351        1.17793560624212
H            3.43681104167430       -5.01015812991320        0.05533728878426
H           -0.23482487268039       -1.88909143807843       -2.10256238581539
H           -0.44609269991365       -3.92985994951417       -3.41769730369161
H            0.92021989093321       -4.67954712977488       -2.60571875529127
H           -0.55360923335247       -4.29799420153989       -1.70640359335680
H            2.23034749130013       -2.75420445864670       -3.69700650811897
H            1.94248896432309       -1.08946397439943       -3.19257259172940
H            0.79609687348989       -1.90035792170179       -4.25029873014825
H            2.59651340488401        0.34460997405470       -1.53905635774220
H            2.05284173178637        1.81829245219348       -0.70646821114470
H            2.80895026024134        0.50766590256016        0.19687749132015
H            1.08208223888698        1.08969503926109       -2.89087025960807
H           -0.64209873980955        1.73658354224864       -4.41976023036100
H           -2.99633475818006        1.91924984499042       -5.01502187941515
H           -5.36614997170420        1.69110063287282       -4.43779034773116
H           -6.00683928961412        0.88478468654098       -2.17991308985533
H           -4.31651325468777        0.36392695236652       -0.52178067063141
H           -1.70502527196532       -1.93924116492994        3.08059961074951
H           -3.04882871523028       -0.34047604327761        4.25397166283991
H           -4.09249206071873        1.84616245575317        4.41409286005876
H           -4.60294049355899        4.04362314663793        3.45990120327136
H           -3.80545813756546        4.60395996672998        1.17747753770379
H           -2.56507920215922        2.98985842339142       -0.13494445369138
H           -1.97890772014421       -3.36842900329882        1.04002205723005
H           -0.43711857333954       -3.82242693879306        0.31399746441029
H           -0.47737153442911       -3.32001810300107        1.99809403314181
80
 energy: -112.369760437235 gnorm: 0.013556575980 xtb: 6.7.1 (edcfbbe)
C            0.63963895001705        3.05275626993906        2.16370055411829
C            2.08406034793612        2.72179256770308        2.37616189929216
C            3.06360439023211        3.68325974095219        2.16510641165689
C            4.40429558054659        3.40956666728601        2.36270531072386
C            4.79506214739956        2.15639445617298        2.80350490823561
C            3.84166022741206        1.18104036252991        3.02338956816361
C            2.50368005744065        1.45704089783258        2.78458238690835
S            1.27942505551680        0.16837610653964        3.03862508997832
S            2.02501313993082       -1.40918924858999        1.95506735698116
P            0.83505224466959       -1.38235659972928        0.18333188948292
N            1.41087599157969       -2.45888688413212       -0.94600655016312
C            2.64063974036405       -3.26502838160966       -0.88111430392113
C            3.89861619152587       -2.41268746032522       -0.74442033197549
C            2.56328900386366       -4.35949907782700        0.17572041819639
C            0.63701332238691       -2.53527646523088       -2.20297977001938
C            0.11193079647484       -3.94220019397383       -2.48659322883040
C            1.45281543785707       -2.03989630402746       -3.39735880351007
N            0.79883974880203        0.18663825507224       -0.38284600736935
C            2.12463307725839        0.75470084452824       -0.61960840357764
C           -0.25881484003131        0.59977192281956       -1.25345939089634
C            0.06299655203580        1.02222516181546       -2.55498045242523
C           -0.91058987523813        1.39300563607665       -3.43151688899401
C           -2.26927980832079        1.29650814864978       -3.07916856701025
C           -3.28040977621910        1.59070192734085       -4.01529035285439
C           -4.59717772000676        1.45833668396894       -3.68413736916533
C           -4.94319443423092        1.01149502889179       -2.40085050829653
C           -3.98317415252979        0.73855067601072       -1.46352636375116
C           -2.61132292848971        0.89102600853971       -1.75795975852787
C           -1.57049145377881        0.61591491518914       -0.81507362010354
C           -1.90021719698763        0.39389595288612        0.60804313453920
C           -1.52109149928676       -0.76671000132308        1.25531458510519
C           -1.94043717434755       -1.02225178381679        2.57246614834826
C           -2.70400202301242       -0.12018539333782        3.24863094121152
C           -3.03715843080785        1.11868996513345        2.66991288616470
C           -3.76177250963786        2.08195977469625        3.40053193677239
C           -4.04045021841032        3.30392661770384        2.86142725997386
C           -3.58961841326121        3.60338115798688        1.56819837631860
C           -2.90174326943463        2.68034973038148        0.82676822608701
C           -2.61631880977547        1.39604554658571        1.33840341379855
N           -0.74826815418533       -1.75517218551738        0.55099284165697
C           -0.91929452423096       -3.13567536013175        1.00476838963361
H            0.04350519034316        2.79729167230069        3.03719356992622
H            0.23545548690369        2.49847667587746        1.31696603852601
H            0.52467045840374        4.11506855320863        1.96763605780100
H            2.76399200919244        4.66667048090300        1.83759652031769
H            5.14171274239554        4.17565827637674        2.18233436825404
H            5.83604153761536        1.93934515187364        2.98016794098324
H            4.13945965169420        0.20389611410773        3.37493327393641
H            2.69987967272050       -3.75817926337947       -1.85430557476884
H            3.94824278548756       -1.91395984729637        0.21960634667136
H            3.94269978713098       -1.66935066803364       -1.53638919706148
H            4.76987147193698       -3.05436925925198       -0.84050710540316
H            1.67973414785977       -4.97299884753504        0.01989720157890
H            2.53999737070500       -3.94502221495577        1.18171968137655
H            3.43626450083505       -4.99956810920784        0.08468122618489
H           -0.22750390691916       -1.86991333581897       -2.07169323998078
H           -0.44953588604198       -3.92112793388511       -3.41625119576315
H            0.91925427416747       -4.65955421905947       -2.60095285109468
H           -0.55435091820121       -4.28916900313391       -1.70357256838979
H            2.21724108975329       -2.75577278957632       -3.68584876404021
H            1.93467978398713       -1.09222340393646       -3.18005669275077
H            0.79036583823044       -1.89568854539646       -4.24567369351625
H            2.59929411913180        0.36601656195560       -1.52471309772294
H            2.03977060549218        1.83634527945618       -0.69853213145335
H            2.78043548382612        0.51831635135216        0.22049133241692
H            1.08842339183180        1.08182591375432       -2.87697775355599
H           -0.64188448288186        1.73985924061849       -4.41641499028742
H           -2.99245829769290        1.91201271384901       -5.00450573968976
H           -5.36417614398191        1.68255123811831       -4.40973933101014
H           -5.98497355201575        0.87615817818428       -2.15406825946782
H           -4.28735097884066        0.38123201585991       -0.49200938138193
H           -1.67597085900238       -1.94061742318498        3.06863187552396
H           -3.04100184897566       -0.34354943098945        4.24823542565424
H           -4.08204129313932        1.83917389958414        4.40214841378202
H           -4.59086994483755        4.03677074308938        3.43189228201201
H           -3.78624247450853        4.58114379972566        1.15574207543108
H           -2.56130398363988        2.95517105702301       -0.15952741113828
H           -1.98372769430909       -3.35940343161710        1.03720086128602
H           -0.43394784973870       -3.80249929248273        0.29427204975352
H           -0.48196407594432       -3.32235558213761        1.98992617510457
80
 energy: -112.371555004264 gnorm: 0.012302340402 xtb: 6.7.1 (edcfbbe)
C            0.63016736798831        3.03997035726334        2.15327043373180
C            2.07554464266538        2.71482643061342        2.35747170889445
C            3.05772428804638        3.67880317794675        2.16402819935700
C            4.39700270682482        3.39997875534256        2.36728872402454
C            4.78426866145962        2.14214233469261        2.79966792101334
C            3.82826551741603        1.16328777465646        3.00064219276929
C            2.49407373726511        1.44582087125074        2.75145254244671
S            1.25560722928716        0.16458772734396        2.98754513096481
S            2.03981706902841       -1.40715383630256        1.92169576373682
P            0.83538950203141       -1.37579781587596        0.16869818464720
N            1.41211228505728       -2.45955106662287       -0.94770819846665
C            2.63971208619046       -3.26870207200896       -0.87852188149930
C            3.89518112332281       -2.41546838147966       -0.73439582528401
C            2.55877818315389       -4.34723273044935        0.19421963323842
C            0.63053838176975       -2.52816828878069       -2.20040400579742
C            0.10095828128246       -3.93228078423371       -2.48539638629339
C            1.44484034392144       -2.03245992880646       -3.39471890276186
N            0.80055474424090        0.20429610825322       -0.37334498436295
C            2.12341182524003        0.77898552570968       -0.60434369757798
C           -0.25404795650319        0.60492074281594       -1.25550008050717
C            0.06992878733138        1.02380622321114       -2.55965684070233
C           -0.90680576666416        1.39227466669928       -3.43347905608812
C           -2.26563410472880        1.29631768359978       -3.07512834432735
C           -3.28398569507252        1.58774373882820       -4.00517715026804
C           -4.59799297584322        1.45281560507489       -3.66318488408613
C           -4.93686262443104        1.00981888254385       -2.37463866036504
C           -3.97224302352293        0.74317250463502       -1.44289837180351
C           -2.60323696632288        0.89277520533876       -1.75372519568184
C           -1.56069622514269        0.61680960882223       -0.81738342754041
C           -1.88963307206647        0.38929306528449        0.60859759349086
C           -1.51087979579453       -0.76744493238118        1.25281528837311
C           -1.92232356346434       -1.02485186232528        2.57401025366254
C           -2.68720634195063       -0.12260408115466        3.24839836139898
C           -3.02461394360950        1.11491095567163        2.66574184556768
C           -3.75212976065943        2.08187323386930        3.38964175157672
C           -4.02972263653186        3.30016895743840        2.84128844341407
C           -3.57838211259553        3.59410411585752        1.54498286818080
C           -2.89182706378767        2.66857128245702        0.80925898232205
C           -2.60517661616477        1.38989669172828        1.33494875692380
N           -0.74402354662243       -1.75588424119956        0.54394432830460
C           -0.91782039962347       -3.13795604516888        0.99106649474714
H            0.04490148629838        2.77906884780663        3.03322789980659
H            0.22090383929161        2.47920119924641        1.31284427508663
H            0.50773891346376        4.10089995421942        1.95722643352591
H            2.75947644110098        4.66712706352957        1.84849094867583
H            5.13643462694256        4.16676087900319        2.19856173262895
H            5.82375143560964        1.92420413569363        2.98518967266749
H            4.11708435020088        0.18103821275386        3.34478333349799
H            2.69728742553989       -3.76675465433052       -1.84835855966062
H            3.93260514197590       -1.92146694358197        0.23237019676806
H            3.94079982656586       -1.66894572589662       -1.52264422048943
H            4.76983647630437       -3.05322735857407       -0.82363945864284
H            1.67703769219553       -4.96491106373072        0.04703763185689
H            2.52965964948401       -3.91040389133952        1.19106332174014
H            3.43419679062302       -4.98679624521021        0.12285498373506
H           -0.22790309625421       -1.85690444240429       -2.05694938344722
H           -0.45922515089703       -3.91060732981317       -3.41539879761501
H            0.91061941140226       -4.64755549196251       -2.59898059600916
H           -0.56457718340073       -4.28084947198482       -1.70242231146395
H            2.20645584205840       -2.75207311407411       -3.68185087924994
H            1.93035407396207       -1.08733274180236       -3.17364651733966
H            0.78293255817395       -1.88533321849075       -4.24267257935602
H            2.60848927394168        0.39203293937393       -1.50431241002687
H            2.02909147044574        1.85978535981299       -0.68586965909539
H            2.76912552273819        0.54818939829021        0.24300681706119
H            1.09737661116224        1.08064643711645       -2.87416618386544
H           -0.64734737402233        1.74032158312174       -4.42094439524805
H           -2.99658269043204        1.90677631386812       -4.99560208271649
H           -5.37311129790847        1.67314150050636       -4.38062303686334
H           -5.97764010717759        0.87537810237520       -2.12413563937697
H           -4.26103705257965        0.39525127051034       -0.46279720822961
H           -1.64746625922978       -1.94257591847299        3.06485546925256
H           -3.02695932655673       -0.33940188008792        4.24887092085020
H           -4.07237119446038        1.83813554630028        4.39133592401233
H           -4.58203381738440        4.03818488055065        3.40211925370087
H           -3.77803124394962        4.56966592849979        1.12930592247479
H           -2.55347394713567        2.92714181804338       -0.18247766375123
H           -1.98330863922500       -3.35736057841807        1.02367237887813
H           -0.43355604169773       -3.79714953098491        0.27498372716975
H           -0.48016500959111       -3.32972092962222        1.97461822968478
80
 energy: -112.372839250974 gnorm: 0.009404395453 xtb: 6.7.1 (edcfbbe)
C            0.61487837510925        3.02567023314500        2.13930505613607
C            2.06166268855128        2.70869192610774        2.34154986870241
C            3.04674768894551        3.67391279580756        2.16373340750139
C            4.38434174401089        3.38708042926163        2.37325205378189
C            4.76729372504705        2.12194837059372        2.78916854384568
C            3.80832327567844        1.14116690758109        2.97134631588419
C            2.47688004046468        1.43522658446797        2.72429330233901
S            1.22938396557414        0.16240529970332        2.95340632068567
S            2.02496132619241       -1.41501758419295        1.90684011129684
P            0.84468585784568       -1.37036672066452        0.15478332021909
N            1.41205789315897       -2.46123611389328       -0.94950953820305
C            2.63725039186646       -3.27288625162393       -0.87380178689685
C            3.89177969115945       -2.41929790979688       -0.72673826803670
C            2.55038942572030       -4.33159279178942        0.21886862331269
C            0.62417779662950       -2.52063649494396       -2.19927111008213
C            0.08616498033329       -3.92009245392601       -2.48813561683849
C            1.43608245092795       -2.02220438950831       -3.39315930818458
N            0.80859321209501        0.21877681369357       -0.36395413487567
C            2.12463175681467        0.81160236047860       -0.58327834591084
C           -0.24134330602459        0.60664945756467       -1.25920375353436
C            0.07871376466390        1.02551719016625       -2.56567415154835
C           -0.90523171142834        1.38821869080614       -3.43599659954371
C           -2.26234670974850        1.29026426883809       -3.06932741149486
C           -3.29003573984421        1.58048473012496       -3.99036326113407
C           -4.60152300329789        1.44478679166324       -3.63413536520390
C           -4.93208635086792        1.00801673041769       -2.34104355148099
C           -3.95855531913118        0.74338427929441       -1.41837634054632
C           -2.59282952843445        0.88811527193866       -1.74831976004861
C           -1.54649994739293        0.61231555258114       -0.81888010307941
C           -1.87022177668808        0.38471975512302        0.60686442884300
C           -1.49168048363337       -0.77125258681736        1.25004531384755
C           -1.89679403145465       -1.02589856384922        2.57526383855866
C           -2.66170248866641       -0.12056867001490        3.24785929727589
C           -3.00369422324557        1.11338459334699        2.65949214986415
C           -3.73607249599254        2.08376974146752        3.37459157567874
C           -4.01571481574296        3.29753718882316        2.81448665828819
C           -3.56572766290465        3.58612515354727        1.51633096406003
C           -2.87522224584455        2.65708999608139        0.78936064432209
C           -2.58609067430223        1.38464006717818        1.32998518330369
N           -0.72976967121858       -1.75669113884425        0.53606090395163
C           -0.91222439118046       -3.14113690442214        0.97025658743029
H            0.03971165939857        2.76647130417023        3.02721268543129
H            0.20271727064010        2.45296069657532        1.30791472492116
H            0.48131457979489        4.08387726623382        1.93570610634831
H            2.75227238117294        4.66815916564462        1.86144268025837
H            5.12721425670245        4.15532082057588        2.22324464700569
H            5.80509497053636        1.90087720407938        2.98280544836099
H            4.08935507112991        0.15084666739304        3.29969791979167
H            2.69671918571417       -3.78285724328998       -1.83684163532673
H            3.92193872238228       -1.92939939127279        0.24196338000150
H            3.94069172232473       -1.66875699062772       -1.51119765728109
H            4.76974224184611       -3.05383622821573       -0.80981776234919
H            1.67173592106512       -4.95665069076478        0.08239816860783
H            2.51314018578372       -3.87052253114551        1.20470570019937
H            3.42966837856569       -4.96962788973812        0.17315449876755
H           -0.22870238470206       -1.84487647180577       -2.04631672899312
H           -0.47305138909161       -3.89471517083165       -3.41888350447713
H            0.89417918952795       -4.63801002111907       -2.60106110992775
H           -0.58223223456461       -4.26849383796734       -1.70718757321499