89
 energy: -121.821409813156 gnorm: 0.133974041288 xtb: 6.7.1 (edcfbbe)
C           -2.69554400000000       -2.87699400000000        3.30452200000000
C           -1.36677700000000       -2.43338900000000        2.71562700000000
C           -1.25304200000000       -0.99359100000000        2.14129700000000
C           -1.63049800000000        0.10188400000000        3.17228600000000
C           -0.82314700000000        0.02299700000000        4.46200900000000
N           -1.87729500000000       -0.76836000000000        0.80437800000000
C           -3.36107500000000       -0.72234800000000        0.83853000000000
C           -3.88232200000000        0.70055600000000        0.53879100000000
C           -5.20279300000000        1.05220100000000        1.21985600000000
C           -3.96251600000000       -1.83885500000000       -0.04812300000000
C           -5.43760700000000       -2.12604900000000        0.18930100000000
P           -0.92339300000000       -0.41749900000000       -0.51195300000000
S           -1.95765900000000       -0.14299700000000       -2.33791800000000
S           -0.52670100000000        0.56159600000000       -3.63591800000000
C           -0.71954700000000        2.32806600000000       -3.56062400000000
C            0.39306500000000        3.14027300000000       -3.30066000000000
C            0.25626500000000        4.52925200000000       -3.23955100000000
C           -0.99511500000000        5.11764500000000       -3.44474300000000
C           -2.10496800000000        4.31771400000000       -3.72496200000000
C           -1.96562000000000        2.92894400000000       -3.79015100000000
N            0.14513300000000       -1.67828200000000       -0.67364300000000
C           -0.51340200000000       -2.97223600000000       -0.85098300000000
C            1.30196900000000       -1.50505900000000       -1.49458700000000
C            1.44537800000000       -2.21060900000000       -2.70637600000000
C            2.54441400000000       -2.03870600000000       -3.53855800000000
C            3.52946800000000       -1.11760700000000       -3.21450300000000
C            4.60133400000000       -0.91836200000000       -4.10312800000000
C            5.58620600000000        0.02832900000000       -3.84007800000000
C            5.50025300000000        0.79755700000000       -2.69167600000000
C            4.44112800000000        0.59692600000000       -1.80025800000000
C            3.43313300000000       -0.38409400000000       -2.00578800000000
C            2.33675000000000       -0.62487000000000       -1.08463100000000
C            2.31286300000000       -0.04270300000000        0.22406000000000
C            1.23544000000000        0.79482100000000        0.62608100000000
C            1.39489100000000        1.57943900000000        1.78639200000000
C            2.52054000000000        1.48950500000000        2.59826200000000
C            3.52180900000000        0.57460800000000        2.30771500000000
C            4.61143400000000        0.44314800000000        3.18376900000000
C            5.61522000000000       -0.49146900000000        2.94232900000000
C            5.52788700000000       -1.31308000000000        1.83081500000000
C            4.44721500000000       -1.18237300000000        0.95293600000000
C            3.42155000000000       -0.21681400000000        1.13763300000000
N            0.03823900000000        0.87322500000000       -0.13971600000000
C           -0.66000600000000        2.15333100000000       -0.07005700000000
H           -3.45876200000000       -3.02051000000000        2.53708100000000
H           -3.06599500000000       -2.17775700000000        4.05833400000000
H           -2.56484900000000       -3.84524800000000        3.80083100000000
H           -1.06238700000000       -3.16187300000000        1.96076600000000
H           -0.61024800000000       -2.54429800000000        3.50399400000000
H           -0.17419000000000       -0.89357200000000        1.98979300000000
H           -1.45913800000000        1.08933100000000        2.73645800000000
H           -2.69155900000000        0.06417500000000        3.43669600000000
H            0.25330100000000        0.00845800000000        4.25974500000000
H           -1.03866400000000        0.89425000000000        5.09043300000000
H           -1.07936600000000       -0.86719900000000        5.04498400000000
H           -3.69873700000000       -0.95186900000000        1.85126900000000
H           -3.16423900000000        1.43480900000000        0.90945300000000
H           -3.98314700000000        0.86659800000000       -0.53731400000000
H           -5.39660700000000        2.12468000000000        1.11716200000000
H           -6.05275700000000        0.53338900000000        0.77707300000000
H           -5.17147700000000        0.81948300000000        2.28859800000000
H           -3.42521100000000       -2.77188300000000        0.14502700000000
H           -3.83599700000000       -1.62127600000000       -1.10938200000000
H           -6.06602300000000       -1.31213500000000       -0.16687600000000
H           -5.64346600000000       -2.30812600000000        1.24963300000000
H           -5.73202100000000       -3.02020800000000       -0.37003600000000
H            1.37313000000000        2.69047000000000       -3.13341600000000
H            1.12260500000000        5.15032700000000       -3.02397700000000
H           -1.10793600000000        6.20008500000000       -3.38447800000000
H           -3.08297300000000        4.76676600000000       -3.89441300000000
H           -2.83731100000000        2.32116300000000       -4.02894800000000
H           -1.05482000000000       -3.04010900000000       -1.80026400000000
H            0.20398700000000       -3.79918700000000       -0.78100400000000
H           -1.25359200000000       -3.15802300000000       -0.07567900000000
H            0.67655400000000       -2.89131200000000       -3.05651900000000
H            2.59043100000000       -2.60440400000000       -4.46555800000000
H            4.67177700000000       -1.50361200000000       -5.01693500000000
H            6.40669200000000        0.17269500000000       -4.53513900000000
H            6.25251200000000        1.55644500000000       -2.48680300000000
H            4.40382200000000        1.23952600000000       -0.92216500000000
H            0.62123000000000        2.26771400000000        2.11010300000000
H            2.57903700000000        2.11415500000000        3.48509700000000
H            4.68374300000000        1.06546300000000        4.07089300000000
H            6.45673900000000       -0.58164300000000        3.62337000000000
H            6.29629400000000       -2.06090600000000        1.64155500000000
H            4.40208900000000       -1.86855600000000        0.10818600000000
H           -1.46546400000000        2.21762100000000       -0.80641900000000
H           -1.13828100000000        2.30186200000000        0.89998800000000
H            0.01871900000000        2.98856900000000       -0.26919700000000
89
 energy: -121.840895431209 gnorm: 0.057790691433 xtb: 6.7.1 (edcfbbe)
C           -2.70219865994285       -2.87467761450989        3.30180583172208
C           -1.37083885679983       -2.42873357178238        2.71068844099680
C           -1.23374212104031       -0.99336909874575        2.14739946370973
C           -1.63160232812238        0.09465264279442        3.16724298295249
C           -0.82066941532067        0.01827716857021        4.45681637549015
N           -1.89087473192403       -0.78175786793064        0.83027057352897
C           -3.37214655027554       -0.72632262436612        0.83116562544021
C           -3.88556883080284        0.69533491317853        0.53082642013353
C           -5.20428036283030        1.04938615012907        1.21654882828315
C           -3.95953383664649       -1.83476529787476       -0.06049545886987
C           -5.43687210118794       -2.12286643947147        0.18389631091441
P           -0.89716707026946       -0.43133077971108       -0.46016169600414
S           -1.97435548342076       -0.09188246626286       -2.28129903880946
S           -0.52292698890145        0.57003600166420       -3.58892688216960
C           -0.72417482430929        2.34154342200795       -3.54688862590191
C            0.38619727981141        3.13934566390814       -3.28824892047313
C            0.24860831788660        4.51881899693245       -3.24016816671270
C           -0.99404156209793        5.10404497365086       -3.44364925449126
C           -2.09689426307208        4.30854766352673       -3.72244261496278
C           -1.96262562487926        2.92974831590280       -3.78664364747359
N            0.16806706914821       -1.69577188457674       -0.66447867108117
C           -0.50938234171614       -2.97849400290972       -0.84922185242928
C            1.31354064587353       -1.49432513430338       -1.50673984015934
C            1.43107803791475       -2.19382665862029       -2.72020843756417
C            2.52249310541260       -2.03817863992400       -3.53721684714775
C            3.52729614261893       -1.11895751952736       -3.21529725579034
C            4.60415850143131       -0.91487242319122       -4.09905274461193
C            5.57200078393885        0.02235216919105       -3.82930883392923
C            5.47353965080217        0.79017821676704       -2.66966785567015
C            4.43464114656773        0.59133721724591       -1.78027115274665
C            3.43708528444631       -0.38739135132844       -1.99932322914371
C            2.34297762654454       -0.63818132135425       -1.09435713015898
C            2.32331044316371       -0.02839748346873        0.22973755241406
C            1.26096091636157        0.79414774305186        0.63307480925513
C            1.38919519099866        1.56928948693520        1.79805252280814
C            2.50260703187685        1.49059622244929        2.59701938863610
C            3.52191486734206        0.57578678796543        2.30957237637111
C            4.61707228411326        0.43796993309817        3.18165459036240
C            5.60411598412546       -0.48568338269647        2.93199811366906
C            5.50440064612114       -1.30756711098909        1.81017623807406
C            4.44526345464558       -1.17597292617160        0.93310564712365
C            3.43081389362327       -0.21126645836121        1.12936715295128
N            0.06288015790204        0.88363647887564       -0.13573765885498
C           -0.65274474263685        2.15610877096728       -0.07555414863998
H           -3.46541668761787       -3.01458743222700        2.54023818172251
H           -3.06771982288957       -2.17551980650432        4.05091036518621
H           -2.56394826531616       -3.83679482755125        3.79690990351573
H           -1.07054217194006       -3.14437094225516        1.94268611682999
H           -0.61181115560428       -2.51362767174082        3.49487452533641
H           -0.15795613543312       -0.87505310114560        1.96456183386008
H           -1.46082641063662        1.07448340608827        2.71577345987158
H           -2.69200761727230        0.04440150394215        3.42178607616382
H            0.24984264132558        0.00728714102265        4.25265961318589
H           -1.03811383097057        0.88800459443707        5.07692380365114
H           -1.07291268590376       -0.86681884537942        5.03759196301018
H           -3.68084085620655       -0.95644110537282        1.85161081780301
H           -3.14635623518711        1.40874481984437        0.90205514765567
H           -3.98177145711595        0.84943355669877       -0.54656951714694
H           -5.39174387526136        2.11818825626410        1.11515497187254
H           -6.05136300435116        0.52822883642714        0.78193110091798
H           -5.16780672701295        0.81776977269835        2.28034752302220
H           -3.40787283044533       -2.75611297993198        0.14715514114030
H           -3.81435003206686       -1.59660109806540       -1.11724259112477
H           -6.06711175091322       -1.31119081722310       -0.16496645632023
H           -5.64056692809433       -2.29861736974340        1.23999453903514
H           -5.72658311091931       -3.01789143103524       -0.36614006898380
H            1.35788472489815        2.68566704525680       -3.13103596586493
H            1.11205791478189        5.13637211067429       -3.03311505583730
H           -1.10344662250811        6.17990889173177       -3.39023533894779
H           -3.06626371887471        4.75700410809499       -3.89535939952875
H           -2.82603811278919        2.31714838398880       -4.01551646770100
H           -1.04834383337668       -3.04332917465540       -1.80020144173604
H            0.22079980420247       -3.78729896045521       -0.79252351703598
H           -1.24136394082857       -3.13486701595594       -0.05732684491317
H            0.66784398866916       -2.88603565436478       -3.04335815649296
H            2.58218195635498       -2.61149328252736       -4.45172630857898
H            4.66465919017594       -1.49711569602700       -5.00864365213443
H            6.39240229621350        0.17063159819362       -4.51905786379651
H            6.21942257671574        1.54778290957794       -2.46650479142462
H            4.39075061808298        1.22379766747892       -0.90297193487594
H            0.61632478699291        2.26123744775469        2.09739831374512
H            2.57040060116017        2.12181371738208        3.47182550178859
H            4.67919267743407        1.05869339318520        4.06482211100634
H            6.44201949384679       -0.58214372220519        3.61003562023971
H            6.26453614434540       -2.05569507124336        1.62545030368910
H            4.39337869624369       -1.85161769831763        0.08914032254918
H           -1.44828947463406        2.19283626974149       -0.82521090793430
H           -1.12696933336321        2.31695341120774        0.89626343775432
H            0.03306274961560        2.98028698150133       -0.27544969521488
89
 energy: -121.847154331429 gnorm: 0.013391956875 xtb: 6.7.1 (edcfbbe)
C           -2.70043647653059       -2.86465541309889        3.29740801072155
C           -1.36186177198166       -2.42509408320524        2.71044425907336
C           -1.23062673044986       -0.99532622319848        2.14727782582759
C           -1.62571732802747        0.08798529299559        3.16195287323275
C           -0.81481250720430        0.01857391891990        4.45263880848758
N           -1.90518832991271       -0.78953253623560        0.84302892770909
C           -3.38235761390551       -0.73103136969149        0.82703051572563
C           -3.88643425962805        0.68878993870506        0.52228403195516
C           -5.20064451387719        1.04793846540207        1.21318874290982
C           -3.95376306650811       -1.83181870864332       -0.07181822681982
C           -5.43193976482182       -2.12210484705376        0.17014452785583
P           -0.87823192298306       -0.43433303848710       -0.41924367947155
S           -1.97853494782541       -0.06710810807195       -2.21464344346004
S           -0.52337802479085        0.56707155093437       -3.52147712634652
C           -0.72749782868392        2.34531174642499       -3.51784916528838
C            0.38623597150588        3.13335969454778       -3.27266106934342
C            0.24801486789046        4.50958075583819       -3.24047616682368
C           -0.99098135058154        5.09210178287387       -3.44694623482511
C           -2.09183509617445        4.29727201682213       -3.72015939554217
C           -1.96337258738363        2.92126036185260       -3.76803821514655
N            0.17965727304350       -1.70428009411656       -0.65556955849699
C           -0.50412797189390       -2.98394061426068       -0.84319540792856
C            1.31748313257231       -1.48448094962849       -1.51061204362387
C            1.41556544954293       -2.18606928692881       -2.72533707560227
C            2.50053908337945       -2.03650791955479       -3.53460728211629
C            3.51751600926079       -1.11907197507643       -3.21265227278437
C            4.60065840775609       -0.91015285808369       -4.09008599025631
C            5.55747626984785        0.02088668381391       -3.80930164677392
C            5.44998336535302        0.78382393723478       -2.63791844293741
C            4.42282566154270        0.58454977639836       -1.75422965603048
C            3.42936455074722       -0.38989339356512       -1.99312153316074
C            2.33770434449431       -0.64605260874555       -1.10080390553225
C            2.32394404093904       -0.01540818283599        0.23453541169183
C            1.27793175878387        0.79545990172583        0.63592198100483
C            1.38399205144390        1.56737596354286        1.80652375943078
C            2.48989680022578        1.49302009432907        2.59742002876022
C            3.51981497853330        0.57921582057498        2.30752995558424
C            4.62000464644416        0.43189193867981        3.17523426134241
C            5.59398830563178       -0.48733945452231        2.91533033783927
C            5.48565124945577       -1.30405577157883        1.78083668622266
C            4.44038820271496       -1.16686192536399        0.90715644360065
C            3.43180556214799       -0.20340976775326        1.12164791290234
N            0.08466243807919        0.89901826513189       -0.14498164845296
C           -0.63750079375377        2.16736508351887       -0.09057148498362
H           -3.46202723661802       -3.00289454292928        2.53679982599145
H           -3.06493953680639       -2.16479629007998        4.04314475257765
H           -2.55909155994725       -3.82350207581315        3.79093723406656
H           -1.07001806246197       -3.13355122958437        1.93439227950514
H           -0.60646212923285       -2.50150838144227        3.49469453821859
H           -0.15822726837283       -0.86545789152227        1.93822492126275
H           -1.46147253077516        1.06340039075960        2.69967675681281
H           -2.68480254311137        0.02295844194024        3.40875852966789
H            0.25142788270614        0.00893669661209        4.24116340327865
H           -1.03418027853845        0.88766822951615        5.06754812274876
H           -1.06498299732809       -0.86596075545549        5.02916106286341
H           -3.67304565226692       -0.96362709228457        1.85206217842449
H           -3.13224160322148        1.38985369545707        0.88604043922989
H           -3.98616762320359        0.82955136186155       -0.55546431306800
H           -5.38529188516441        2.11397472992891        1.10801673756767
H           -6.04539959842580        0.52177991365748        0.78561483523048
H           -5.15637987569356        0.81812234446002        2.27476575810240
H           -3.39513527033567       -2.74775861744769        0.13607360316502
H           -3.79795972465490       -1.57339357918125       -1.12281075535365
H           -6.06096018930500       -1.31033957842393       -0.17649522269844
H           -5.62963576435057       -2.28808016536897        1.22635006929234
H           -5.71914075766949       -3.01902590870704       -0.37200399858666
H            1.34928633958965        2.67319174925741       -3.11292931689989
H            1.11028816224817        5.12649883883610       -3.04232127375403
H           -1.09839119986144        6.16424106555546       -3.40056342101487
H           -3.05527025901794        4.74686632509174       -3.90005181563200
H           -2.81851811199259        2.30145140594524       -3.99227254948635
H           -1.04423470403487       -3.04749512313404       -1.79248924809640
H            0.23382269173062       -3.78224975782637       -0.79407435673056
H           -1.22786125638136       -3.11686196137597       -0.04109796326955
H            0.64253194833490       -2.86838253962049       -3.03463704555139
H            2.57395129535645       -2.60862109836873       -4.44567722299710
H            4.65169363108404       -1.49230610880649       -4.99752629736462
H            6.37993087634498        0.17829760849843       -4.49098741246665
H            6.18986260346733        1.54357615566111       -2.43721857969031
H            4.37021617097133        1.20170654994476       -0.87058632687181
H            0.60245399400086        2.25126569808708        2.08966049918874
H            2.56823728724071        2.12050628219840        3.47099923772252
H            4.67132310659725        1.05216984619002        4.05720979830494
H            6.43218571570595       -0.59423242573561        3.58687240805842
H            6.23850647816035       -2.05569661838581        1.60088372133017
H            4.38033139780306       -1.82527021748502        0.05452427461465
H           -1.42047981112355        2.17927192243715       -0.85133027540285
H           -1.11584863543394        2.34081564903520        0.87760531397446
H            0.05625694956984        2.98158219748084       -0.29187353639538
89
 energy: -121.849024993608 gnorm: 0.012419352156 xtb: 6.7.1 (edcfbbe)
C           -2.69401322626461       -2.85784592079031        3.29518009626400
C           -1.35238725087104       -2.42231225748128        2.70990568519553
C           -1.22335093969146       -0.99507379472878        2.14513111081913
C           -1.62148636119042        0.08702066978893        3.15693508663230
C           -0.80636009184319        0.02163546630070        4.44478557885508
N           -1.90662016598799       -0.79218156519618        0.84679918110558
C           -3.38229440673112       -0.73536138272406        0.82628893730522
C           -3.88557685594127        0.68177561479907        0.51469959428636
C           -5.19440316936019        1.04727497327150        1.21153135320326
C           -3.94643314550821       -1.83000851793809       -0.08207898570586
C           -5.42515282447223       -2.12228614157053        0.15308480025433
P           -0.87573174967116       -0.42884241353518       -0.40384438364776
S           -1.99661324835093       -0.05400911213235       -2.17426732832531
S           -0.51720512152861        0.55333989572798       -3.46645193668011
C           -0.72619563849342        2.33424101693159       -3.48041377048754
C            0.39007493456554        3.12199011164790       -3.24761914449910
C            0.25293873440151        4.49973243398876       -3.23803073702182
C           -0.98641089817268        5.07948943195992       -3.45266233297033
C           -2.08861248494627        4.28208565340960       -3.71564531307438
C           -1.96247237386528        2.90415170957050       -3.74214711046651
N            0.17536597718319       -1.70228973394496       -0.64883810287946
C           -0.50424307006440       -2.98501429701350       -0.82981293493365
C            1.30769558317324       -1.47911879806217       -1.50855944059860
C            1.39745439578732       -2.17780020729777       -2.72782547802982
C            2.48417269286715       -2.02902676492745       -3.53446990698225
C            3.50483378786726       -1.11520251092270       -3.20741520878415
C            4.59265688507876       -0.90268222248686       -4.07902847421391
C            5.54740013553726        0.02749632870875       -3.78758019089728
C            5.43683810619275        0.78548313349113       -2.61105882339444
C            4.40901540422447        0.58161745474053       -1.73245443572333
C            3.41640831370352       -0.38992252309436       -1.98739762812040
C            2.32535950193132       -0.64551362642929       -1.09995045811070
C            2.31581492098593       -0.01046324687429        0.23721224371398
C            1.27586995194740        0.79917908662881        0.63870227894719
C            1.37711321320431        1.56836872482576        1.81391797495592
C            2.48435164206910        1.49086801143111        2.60226668445702
C            3.51574531355589        0.57870313430289        2.30448113469347
C            4.62009817628710        0.42414586605328        3.16685489878220
C            5.58979757918541       -0.49691785599709        2.89677305971051
C            5.47806482980147       -1.30642546366580        1.75502253971494
C            4.43359779387231       -1.15978178029131        0.88477159404886
C            3.42598699372797       -0.19871932783977        1.11706221199920
N            0.09060622144775        0.90979600073146       -0.15576084359735
C           -0.62249170910967        2.18237282649449       -0.11196829905797
H           -3.45318654975187       -2.99433133999105        2.53167949347564
H           -3.05859069548026       -2.15414436717329        4.03748536950707
H           -2.55714172931226       -3.81594065222715        3.79088535740918
H           -1.06267067696487       -3.13170415070945        1.93495855841359
H           -0.59931571084702       -2.49722087051567        3.49518885371838
H           -0.15238185214071       -0.86231647299907        1.92526685525644
H           -1.46434391285357        1.06160066742856        2.69067878769172
H           -2.68001182350811        0.01359120762105        3.40366227825557
H            0.25914094187584        0.01430098248988        4.22840211153709
H           -1.02688342518381        0.89091842885877        5.05824439340200
H           -1.05262467071600       -0.86358455617860        5.02214726904587
H           -3.67612402703455       -0.96938542555489        1.84966081075394
H           -3.12540582283242        1.38248532488323        0.86514650287803
H           -3.99435021619955        0.81194889363406       -0.56333571278082
H           -5.38037043544102        2.11211411199532        1.09898040020589
H           -6.04066961961624        0.51578494087705        0.79296368030066
H           -5.14202758907103        0.82440599741629        2.27437356236183
H           -3.38680050784481       -2.74611760328353        0.11902262358758
H           -3.78643915127565       -1.56046800151868       -1.12934851844057
H           -6.05277899643345       -1.31154079990780       -0.19873864666090
H           -5.62410868088278       -2.28205865845770        1.21020697534427
H           -5.71005158632012       -3.02170622045716       -0.38541147480169
H            1.35069370744181        2.65902497245719       -3.08398545803226
H            1.11639786178376        5.11960775933506       -3.05323934468079
H           -1.09256918366689        6.15241574302368       -3.42196471583974
H           -3.05003803391404        4.73243893951537       -3.90590627683568
H           -2.81578929261757        2.27851293986979       -3.95647821411668
H           -1.04848294357727       -3.05233926077437       -1.77587574024031
H            0.23923983162751       -3.77862616855552       -0.78388974497444
H           -1.22065676059607       -3.11413136473537       -0.02270177999451
H            0.61610971315987       -2.85123678449142       -3.03419584962568
H            2.56351271145382       -2.59703140534363       -4.44795764035296
H            4.64229171290623       -1.48364300887232       -4.98761266317554
H            6.37455910863567        0.19091916540422       -4.46114512383657
H            6.17769670595343        1.54248417437988       -2.40486621108650
H            4.34939255710643        1.18565267533652       -0.83991508700780
H            0.58972423561901        2.24676200041100        2.09231546859034
H            2.56966931720365        2.11280164476343        3.47966996909232
H            4.67002641825811        1.04214537842427        4.05081481220814
H            6.43054945495520       -0.61402225955597        3.56267758550178
H            6.22977422155877       -2.05783822316514        1.57064871705740
H            4.36743712351066       -1.80211733406399        0.01979850297918
H           -1.39580929963856        2.19078599390475       -0.88006329208058
H           -1.10746214990631        2.36917441711559        0.85027236971250
H            0.08166536404454        2.98765948952583       -0.31464059046520
89
 energy: -121.850440365294 gnorm: 0.010116862362 xtb: 6.7.1 (edcfbbe)
C           -2.68449717233663       -2.85224508778068        3.29560139267278
C           -1.33988638298150       -2.42080365266284        2.71434621925679
C           -1.21811972095799       -0.99622043115765        2.14535994439359
C           -1.61460555457693        0.08805101384712        3.15355856111459
C           -0.79196189899964        0.03056189367983        4.43618639171585
N           -1.90774255284473       -0.79846146727975        0.85077243986477
C           -3.38176306145622       -0.74129346929866        0.82432091777009
C           -3.88472624707282        0.67406872440549        0.50504685008672
C           -5.18460243108559        1.04742226221511        1.21328423550419
C           -3.93810672084788       -1.83171627393585       -0.09400988201559
C           -5.41797883159745       -2.12373682478129        0.12981429724370
P           -0.88159614349185       -0.41964819840412       -0.38907520750251
S           -1.99495177824997       -0.05846500757708       -2.14793568561829
S           -0.50471228061660        0.53884339468174       -3.43181456336547
C           -0.71809393717540        2.31939683797799       -3.44649656098541
C            0.39916640520544        3.10812745840813       -3.22230845819086
C            0.26196989406364        4.48659531967051       -3.23516063204165
C           -0.97814399526317        5.06184401788884       -3.46186195936965
C           -2.08284308244661        4.26056026793557       -3.70620632753729
C           -1.95749443747400        2.88149884731433       -3.70885524642642
N            0.16209545295763       -1.69496908649317       -0.64206269281328
C           -0.50751462822676       -2.98438104708580       -0.80938384842087
C            1.28814913766579       -1.47103498788324       -1.50582736641795