89
 energy: -121.856358442498 gnorm: 0.000031962315 xtb: 6.7.1 (edcfbbe)
C           -2.69837497446434       -2.88797878614423        3.35386164172073
C           -1.37767463125017       -2.38901712329071        2.77561150886550
C           -1.33461984424720       -0.97041979498487        2.17965396250161
C           -1.79994551430653        0.11199704901979        3.16092632066026
C           -0.95721816688873        0.16031659858867        4.43098972546449
N           -2.01718941334593       -0.84114622374064        0.87425248266473
C           -3.48873237068324       -0.84678657491314        0.82769950138101
C           -4.07184208946485        0.53058167440277        0.46644213198881
C           -5.18380856845383        0.97440370663778        1.41176826536552
C           -3.98214393457347       -1.96981387622537       -0.09078087285417
C           -5.49139198642211       -2.17035582699693       -0.02732046952502
P           -1.03738928339310       -0.33271928295510       -0.35763813097598
S           -2.23314527358052        0.23564651323688       -2.02176625367943
S           -0.83689889846005        0.45700284391384       -3.50398191906627
C           -0.37490699385957        2.17800740160735       -3.37059136188147
C            0.97124296535123        2.48307183655956       -3.25284804281492
C            1.35492627404276        3.81091239915295       -3.17640886677856
C            0.39998178587962        4.81431963176489       -3.20894558889533
C           -0.94396265613260        4.49528595329583       -3.32861487950118
C           -1.33926114442539        3.17252966273628       -3.41843507901847
N           -0.00433612588141       -1.58209388854838       -0.72696665184985
C           -0.58797785288061       -2.91510866092365       -0.83635909269481
C            1.08984336790557       -1.30890387586807       -1.61022142036742
C            1.13831708854602       -1.89322789791647       -2.89095103313023
C            2.17445870248560       -1.62189742300636       -3.73460687795938
C            3.18826938397093       -0.71315112810892       -3.36719111789129
C            4.21968632636573       -0.35612510183564       -4.25964701438800
C            5.16874229650660        0.55892781530123       -3.89890744108418
C            5.11725517442208        1.16132587260155       -2.63321479871096
C            4.13790893773560        0.82524484850588       -1.73952403246131
C            3.15615857935729       -0.13315554279589       -2.07198221557818
C            2.11455992651358       -0.50236770019884       -1.17106727071545
C            2.16040736686464       -0.02029740762891        0.21871187374143
C            1.14466906875875        0.75641013593950        0.72880134204823
C            1.28190937339344        1.37841488175050        1.98444468700149
C            2.39770732373209        1.16542032196269        2.74083798770491
C            3.40893982470603        0.28358452927155        2.30811752541187
C            4.53477079551161       -0.00031905843391        3.10806859636627
C            5.49575191997300       -0.87010117263339        2.67504403469071
C            5.36233352890247       -1.50053821970939        1.42896220360493
C            4.28743044193312       -1.23744842747867        0.62558439818518
C            3.28926279337864       -0.32652338638533        1.03232991800133
N           -0.03471903419326        0.96445667556709       -0.05642797982057
C           -0.59778124288287        2.30884194425999       -0.03415332107558
H           -3.43968983817915       -3.07484223403938        2.58282553302892
H           -3.10758025900049       -2.19097370334232        4.07955618010741
H           -2.51879601040076       -3.82927507403779        3.86813178844845
H           -1.03247207321335       -3.09606587649126        2.02032748224101
H           -0.63093826736906       -2.39942276180519        3.57145659471003
H           -0.27255384484437       -0.78643094174772        1.95987376373425
H           -1.74230602737811        1.07687513029172        2.65106791921094
H           -2.84280910696697       -0.04385384189668        3.43452036181166
H            0.10314165486995        0.19743718588256        4.19240112160827
H           -1.21241485741334        1.04600491266813        5.00728440579910
H           -1.14110280959964       -0.70807978423725        5.05632205188927
H           -3.80650485343009       -1.08690175353660        1.84230720491214
H           -3.26910445190560        1.27209262928295        0.50485825548434
H           -4.45393994093871        0.51390722540453       -0.55552577042409
H           -5.57727467407517        1.93693281738779        1.09565588432252
H           -6.00074949645470        0.25954596864327        1.41696720203352
H           -4.81062379280402        1.07924364903545        2.42792171025093
H           -3.49575537171218       -2.90025792969409        0.21030653057105
H           -3.68909613421027       -1.75527873073049       -1.12017734937040
H           -6.02099185429995       -1.30333502678595       -0.40979357547992
H           -5.81329723861991       -2.35474162315954        0.99506257512588
H           -5.77249974337290       -3.02894475922263       -0.63117482241228
H            1.70423726228009        1.69195035650108       -3.23105175396878
H            2.40220907080293        4.05627251539512       -3.09047496034217
H            0.70248568988942        5.84813552916181       -3.14759623728616
H           -1.68697191963385        5.27673994612854       -3.36397515537511
H           -2.38250929025541        2.91189140624140       -3.52099942067135
H           -1.15739603585063       -3.06167899392290       -1.75704678301729
H            0.22029276232299       -3.64420625819729       -0.79722261120653
H           -1.25698620349542       -3.07581690490048        0.00437839719280
H            0.34820957479701       -2.54986282495435       -3.21554567279563
H            2.21348257705995       -2.08148914392400       -4.71001847331914
H            4.23642050632671       -0.81368704679888       -5.23740033763825
H            5.95481851682419        0.83083954374328       -4.58613661156921
H            5.85853479468555        1.89928570501906       -2.36690129894272
H            4.10165000572065        1.30575524008870       -0.77392189455334
H            0.50912119053215        2.03564998462137        2.34739459155484
H            2.50962525944405        1.66134973320684        3.69330964266469
H            4.61719636206597        0.47904067722848        4.07216714638748
H            6.35576788136908       -1.08452210234462        3.29033863069708
H            6.11641430260468       -2.20218555530588        1.10689175958425
H            4.19004196372668       -1.73745788039491       -0.32569951883262
H           -1.35169228621959        2.40638215059778       -0.81422021006133
H           -1.06215914640067        2.56823959034753        0.92029659555713
H            0.20335490631265        3.01853193923227       -0.24029324641534
