      -----------------------------------------------------------      
     |                   =====================                   |     
     |                           x T B                           |     
     |                   =====================                   |     
     |                         S. Grimme                         |     
     |          Mulliken Center for Theoretical Chemistry        |     
     |                    University of Bonn                     |     
      -----------------------------------------------------------      

   * xtb version 6.7.1 (edcfbbe) compiled by 'conda@3ef47c1a292c' on 2024-11-25

   xtb is free software: you can redistribute it and/or modify it under
   the terms of the GNU Lesser General Public License as published by
   the Free Software Foundation, either version 3 of the License, or
   (at your option) any later version.
   
   xtb is distributed in the hope that it will be useful,
   but WITHOUT ANY WARRANTY; without even the implied warranty of
   MERCHANTABILITY or FITNESS FOR A PARTICULAR PURPOSE.  See the
   GNU Lesser General Public License for more details.
   
   Cite this work as:
   * C. Bannwarth, E. Caldeweyher, S. Ehlert, A. Hansen, P. Pracht,
     J. Seibert, S. Spicher, S. Grimme, WIREs Comput. Mol. Sci., 2020, 11,
     e01493. DOI: 10.1002/wcms.1493
   
   for GFN2-xTB:
   * C. Bannwarth, S. Ehlert and S. Grimme., J. Chem. Theory Comput., 2019,
     15, 1652-1671. DOI: 10.1021/acs.jctc.8b01176
   for GFN1-xTB:
   * S. Grimme, C. Bannwarth, P. Shushkov, J. Chem. Theory Comput., 2017,
     13, 1989-2009. DOI: 10.1021/acs.jctc.7b00118
   for GFN0-xTB:
   * P. Pracht, E. Caldeweyher, S. Ehlert, S. Grimme, ChemRxiv, 2019, preprint.
     DOI: 10.26434/chemrxiv.8326202.v1
   for GFN-FF:
   * S. Spicher and S. Grimme, Angew. Chem. Int. Ed., 2020, 59, 15665-15673.
     DOI: 10.1002/anie.202004239
   
   for ALPB and GBSA implicit solvation:
   * S. Ehlert, M. Stahn, S. Spicher, S. Grimme, J. Chem. Theory Comput.,
     2021, 17, 4250-4261. DOI: 10.1021/acs.jctc.1c00471
   
   for ddCOSMO and CPCM-X implicit solvation:
   * M. Stahn, S. Ehlert, S. Grimme, J. Phys. Chem. A,
     2023, XX, XXXX-XXXX. DOI: 10.1021/acs.jpca.3c04382
   
   for DFT-D4:
   * E. Caldeweyher, C. Bannwarth and S. Grimme, J. Chem. Phys., 2017,
     147, 034112. DOI: 10.1063/1.4993215
   * E. Caldeweyher, S. Ehlert, A. Hansen, H. Neugebauer, S. Spicher,
     C. Bannwarth and S. Grimme, J. Chem. Phys., 2019, 150, 154122.
     DOI: 10.1063/1.5090222
   * E. Caldeweyher, J.-M. Mewes, S. Ehlert and S. Grimme, Phys. Chem. Chem. Phys.
     2020, 22, 8499-8512. DOI: 10.1039/D0CP00502A
   
   for sTDA-xTB:
   * S. Grimme and C. Bannwarth, J. Chem. Phys., 2016, 145, 054103.
     DOI: 10.1063/1.4959605
   
   in the mass-spec context:
   * V. Asgeirsson, C. Bauer and S. Grimme, Chem. Sci., 2017, 8, 4879.
     DOI: 10.1039/c7sc00601b
   * J. Koopman and S. Grimme, ACS Omega 2019, 4, 12, 15120-15133.
     DOI: 10.1021/acsomega.9b02011
   
   for metadynamics refer to:
   * S. Grimme, J. Chem. Theory Comput., 2019, 155, 2847-2862
     DOI: 10.1021/acs.jctc.9b00143
   
   for SPH calculations refer to:
   * S. Spicher and S. Grimme, J. Chem. Theory Comput., 2021, 17, 1701-1714
     DOI: 10.1021/acs.jctc.0c01306
   
   for ONIOM refer to:
   * C. Plett, A. Katbashev, S. Ehlert, S. Grimme, M. Bursch,
     Phys. Chem. Chem. Phys., 2023, 25, 17860-17868. DOI: 10.1039/D3CP02178E
   
   for DIPRO refer to:
   * J. Kohn, N. Gildemeister, S. Grimme, D. Fazzi, A. Hansen,
     J. Chem. Phys., 2023, just accepted.
   
   for PTB refer to:
   * S. Grimme, M. Mueller, A. Hansen, J. Chem. Phys., 2023, 158, 124111.
     DOI: 10.1063/5.0137838
   
   with help from (in alphabetical order)
   P. Atkinson, C. Bannwarth, F. Bohle, G. Brandenburg, E. Caldeweyher
   M. Checinski, S. Dohm, S. Ehlert, S. Ehrlich, I. Gerasimov, C. Hölzer
   A. Katbashev, J. Kohn, J. Koopman, C. Lavigne, S. Lehtola, F. März, M. Müller,
   F. Musil, H. Neugebauer, J. Pisarek, C. Plett, P. Pracht, F. Pultar,
   J. Seibert, P. Shushkov, S. Spicher, M. Stahn, M. Steiner, T. Strunk,
   J. Stückrath, T. Rose, and J. Unsleber
   
 * started run on 2024/12/16 at 20:26:14.545     
   ID    Z sym.   atoms
    1    6 C      1-7, 12-18, 20-40, 42
    2   16 S      8, 9
    3   15 P      10
    4    7 N      11, 19, 41
    5    1 H      43-83

           -------------------------------------------------
          |                Calculation Setup                |
           -------------------------------------------------

          program call               : xtb --gfn2 --opt extreme -P 8 --charge 1 molecule.xyz
          hostname                   : node20
          coordinate file            : molecule.xyz
          omp threads                :                     8


           -------------------------------------------------
          |                 G F N 2 - x T B                 |
           -------------------------------------------------

        Reference                      10.1021/acs.jctc.8b01176
      * Hamiltonian:
        H0-scaling (s, p, d)           1.850000    2.230000    2.230000
        zeta-weighting                 0.500000
      * Dispersion:
        s8                             2.700000
        a1                             0.520000
        a2                             5.000000
        s9                             5.000000
      * Repulsion:
        kExp                           1.500000    1.000000
        rExp                           1.000000
      * Coulomb:
        alpha                          2.000000
        third order                    shell-resolved
        anisotropic                    true
        a3                             3.000000
        a5                             4.000000
        cn-shift                       1.200000
        cn-exp                         4.000000
        max-rad                        5.000000


          ...................................................
          :                      SETUP                      :
          :.................................................:
          :  # basis functions                 227          :
          :  # atomic orbitals                 224          :
          :  # shells                          128          :
          :  # electrons                       216          :
          :  max. iterations                   250          :
          :  Hamiltonian                  GFN2-xTB          :
          :  restarted?                      false          :
          :  GBSA solvation                  false          :
          :  PC potential                    false          :
          :  electronic temp.          300.0000000     K    :
          :  accuracy                    1.0000000          :
          :  -> integral cutoff          0.2500000E+02      :
          :  -> integral neglect         0.1000000E-07      :
          :  -> SCF convergence          0.1000000E-05 Eh   :
          :  -> wf. convergence          0.1000000E-03 e    :
          :  Broyden damping             0.4000000          :
          :  net charge                          1          :
          :  unpaired electrons                  0          :
          ...................................................

 iter      E             dE          RMSdq      gap      omega  full diag
   1   -117.0798946 -0.117080E+03  0.431E+00    1.75       0.0  T
   2   -117.2435253 -0.163631E+00  0.264E+00    2.09       1.0  T
   3   -117.2276978  0.158275E-01  0.133E+00    1.99       1.0  T
   4   -117.2496880 -0.219902E-01  0.639E-01    1.70       1.0  T
   5   -117.2737642 -0.240762E-01  0.277E-01    1.81       1.0  T
   6   -117.2762076 -0.244337E-02  0.142E-01    1.78       1.0  T
   7   -117.2776825 -0.147489E-02  0.494E-02    1.79       1.0  T
   8   -117.2777395 -0.570481E-04  0.246E-02    1.80       1.0  T
   9   -117.2777476 -0.809099E-05  0.116E-02    1.80       1.0  T
  10   -117.2777484 -0.790025E-06  0.707E-03    1.80       1.6  T
  11   -117.2777494 -0.102978E-05  0.385E-03    1.80       2.9  T
  12   -117.2777497 -0.306412E-06  0.222E-03    1.80       5.0  T
  13   -117.2777498 -0.147167E-07  0.110E-03    1.80       9.9  T
  14   -117.2777498 -0.352666E-07  0.502E-04    1.80      21.9  T
  15   -117.2777498 -0.240958E-08  0.232E-04    1.80      47.4  T

   *** convergence criteria satisfied after 15 iterations ***

         #    Occupation            Energy/Eh            Energy/eV
      -------------------------------------------------------------
         1        2.0000           -0.8550093             -23.2660
       ...           ...                  ...                  ...
       102        2.0000           -0.4979003             -13.5486
       103        2.0000           -0.4941218             -13.4457
       104        2.0000           -0.4887078             -13.2984
       105        2.0000           -0.4838947             -13.1674
       106        2.0000           -0.4804262             -13.0731
       107        2.0000           -0.4657319             -12.6732
       108        2.0000           -0.4520117             -12.2999 (HOMO)
       109                         -0.3860208             -10.5042 (LUMO)
       110                         -0.3690694             -10.0429
       111                         -0.3574569              -9.7269
       112                         -0.3478861              -9.4665
       113                         -0.3279386              -8.9237
       ...                                ...                  ...
       224                          1.0473607              28.5001
      -------------------------------------------------------------
                  HL-Gap            0.0659909 Eh            1.7957 eV
             Fermi-level           -0.4190163 Eh          -11.4020 eV

 SCC (total)                   0 d,  0 h,  0 min,  2.460 sec
 SCC setup                      ...        0 min,  0.000 sec (  0.016%)
 Dispersion                     ...        0 min,  0.002 sec (  0.086%)
 classical contributions        ...        0 min,  0.000 sec (  0.005%)
 integral evaluation            ...        0 min,  0.010 sec (  0.398%)
 iterations                     ...        0 min,  2.313 sec ( 94.002%)
 molecular gradient             ...        0 min,  0.116 sec (  4.714%)
 printout                       ...        0 min,  0.019 sec (  0.777%)

         :::::::::::::::::::::::::::::::::::::::::::::::::::::
         ::                     SUMMARY                     ::
         :::::::::::::::::::::::::::::::::::::::::::::::::::::
         :: total energy            -115.498665064857 Eh    ::
         :: gradient norm              0.134394730980 Eh/a0 ::
         :: HOMO-LUMO gap              1.795704855029 eV    ::
         ::.................................................::
         :: SCC energy              -117.270819746623 Eh    ::
         :: -> isotropic ES            0.079525674188 Eh    ::
         :: -> anisotropic ES          0.005623933926 Eh    ::
         :: -> anisotropic XC          0.071605532547 Eh    ::
         :: -> dispersion             -0.130095817054 Eh    ::
         :: repulsion energy           1.772154681766 Eh    ::
         :: add. restraining           0.000000000000 Eh    ::
         :: total charge               1.000000000000 e     ::
         :::::::::::::::::::::::::::::::::::::::::::::::::::::

      ----------------------------------------------------------- 
     |                   =====================                   |
     |                        A N C O P T                        |
     |                   =====================                   |
     |               Approximate Normal Coordinate               |
     |                Rational Function Optimizer                |
      ----------------------------------------------------------- 
      ----------------------------------------------------------- 
     |                   =====================                   |
     |                        A N C O P T                        |
     |                   =====================                   |
     |               Approximate Normal Coordinate               |
     |                Rational Function Optimizer                |
      ----------------------------------------------------------- 

          ...................................................
          :                      SETUP                      :
          :.................................................:
          :   optimization level           extreme          :
          :   max. optcycles                  1660          :
          :   ANC micro-cycles                  20          :
          :   degrees of freedom               243          :
          :.................................................:
          :   RF solver                   davidson          :
          :   write xtbopt.log                true          :
          :   linear?                        false          :
          :   energy convergence         0.5000000E-07 Eh   :
          :   grad. convergence          0.5000000E-04 Eh/α :
          :   maxmium RF displ.          1.0000000          :
          :   Hlow (freq-cutoff)         0.1000000E-01      :
          :   Hmax (freq-cutoff)         5.0000000          :
          :   S6 in model hess.         20.0000000          :
          ...................................................

generating ANC from exact Hessian ...
Using Lindh-Hessian (1995)
 Shifting diagonal of input Hessian by    9.8845398501998787E-003
 Lowest  eigenvalues of input Hessian
    0.000000    0.000000    0.000000    0.000000    0.000000    0.000000
    0.010000    0.010085    0.010173    0.010212    0.010252    0.010456
    0.010492    0.010658    0.010922    0.011005    0.011253    0.011452
 Highest eigenvalues
    1.920364    1.967552    1.999900    2.028653    2.064709    2.078591


........................................................................
.............................. CYCLE    1 ..............................
........................................................................

 iter      E             dE          RMSdq      gap      omega  full diag
   1   -117.2777498 -0.117278E+03  0.111E-04    1.80       0.0  T
   2   -117.2777498 -0.137177E-09  0.744E-05    1.80     147.6  T
   3   -117.2777498 -0.141299E-09  0.501E-05    1.80     218.9  T
     SCC iter.                  ...        0 min,  0.362 sec
     gradient                   ...        0 min,  0.116 sec
 * total energy  :  -115.4986651 Eh     change       -0.1375852E-08 Eh
   gradient norm :     0.1343947 Eh/α   predicted     0.0000000E+00 (-100.00%)
   displ. norm   :     0.4351651 α      lambda       -0.2966109E-01
   maximum displ.:     0.0949509 α      in ANC's #53, #24, #86, ...

........................................................................
.............................. CYCLE    2 ..............................
........................................................................

 iter      E             dE          RMSdq      gap      omega  full diag
   1   -117.3542026 -0.117354E+03  0.256E-01    1.94       0.0  T
   2   -117.3543589 -0.156266E-03  0.140E-01    2.00       1.0  T
   3   -117.3542704  0.884432E-04  0.479E-02    2.04       1.0  T
   4   -117.3543743 -0.103830E-03  0.243E-02    2.04       1.0  T
   5   -117.3543966 -0.223038E-04  0.123E-02    2.04       1.0  T
   6   -117.3544026 -0.599745E-05  0.567E-03    2.04       1.9  T
   7   -117.3544036 -0.105066E-05  0.353E-03    2.04       3.1  T
   8   -117.3544038 -0.179590E-06  0.213E-03    2.04       5.2  T
   9   -117.3544039 -0.470094E-07  0.963E-04    2.04      11.4  T
  10   -117.3544039 -0.116535E-07  0.433E-04    2.04      25.3  T
     SCC iter.                  ...        0 min,  1.358 sec
     gradient                   ...        0 min,  0.117 sec
 * total energy  :  -115.5196359 Eh     change       -0.2097083E-01 Eh
   gradient norm :     0.0581973 Eh/α   predicted    -0.1767341E-01 ( -15.72%)
   displ. norm   :     0.4512995 α      lambda       -0.1136432E-01
   maximum displ.:     0.1099844 α      in ANC's #15, #18, #17, ...

........................................................................
.............................. CYCLE    3 ..............................
........................................................................

 iter      E             dE          RMSdq      gap      omega  full diag
   1   -117.4024546 -0.117402E+03  0.188E-01    2.21       0.0  T
   2   -117.4025169 -0.623583E-04  0.101E-01    2.24       1.0  T
   3   -117.4024906  0.263254E-04  0.310E-02    2.26       1.0  T
   4   -117.4025240 -0.333717E-04  0.143E-02    2.26       1.0  T
   5   -117.4025309 -0.692982E-05  0.728E-03    2.26       1.5  T
   6   -117.4025333 -0.244359E-05  0.298E-03    2.26       3.7  T
   7   -117.4025335 -0.207089E-06  0.187E-03    2.26       5.9  T
   8   -117.4025336 -0.653630E-07  0.979E-04    2.26      11.2  T
   9   -117.4025336 -0.118989E-07  0.554E-04    2.26      19.8  T
     SCC iter.                  ...        0 min,  1.320 sec
     gradient                   ...        0 min,  0.116 sec
 * total energy  :  -115.5268467 Eh     change       -0.7210815E-02 Eh
   gradient norm :     0.0157927 Eh/α   predicted    -0.6839464E-02 (  -5.15%)
   displ. norm   :     0.4355696 α      lambda       -0.3346040E-02
   maximum displ.:     0.1415378 α      in ANC's #15, #17, #18, ...

........................................................................
.............................. CYCLE    4 ..............................
........................................................................

 iter      E             dE          RMSdq      gap      omega  full diag
   1   -117.4083769 -0.117408E+03  0.111E-01    2.32       0.0  T
   2   -117.4084034 -0.265318E-04  0.593E-02    2.33       1.0  T
   3   -117.4083963  0.712926E-05  0.198E-02    2.33       1.0  T
   4   -117.4084066 -0.103318E-04  0.847E-03    2.34       1.3  T
   5   -117.4084085 -0.183163E-05  0.421E-03    2.34       2.6  T
   6   -117.4084093 -0.881183E-06  0.177E-03    2.34       6.2  T
   7   -117.4084095 -0.109699E-06  0.936E-04    2.34      11.7  T
   8   -117.4084095 -0.254377E-07  0.525E-04    2.34      20.9  T
     SCC iter.                  ...        0 min,  1.069 sec
     gradient                   ...        0 min,  0.116 sec
 * total energy  :  -115.5293482 Eh     change       -0.2501449E-02 Eh
   gradient norm :     0.0146846 Eh/α   predicted    -0.1990430E-02 ( -20.43%)
   displ. norm   :     0.5211985 α      lambda       -0.2443638E-02
   maximum displ.:     0.1838810 α      in ANC's #17, #9, #7, ...

........................................................................
.............................. CYCLE    5 ..............................
........................................................................

 iter      E             dE          RMSdq      gap      omega  full diag
   1   -117.4098549 -0.117410E+03  0.104E-01    2.36       0.0  T
   2   -117.4098832 -0.283140E-04  0.563E-02    2.36       1.0  T
   3   -117.4098802  0.303157E-05  0.205E-02    2.36       1.0  T
   4   -117.4098870 -0.683092E-05  0.718E-03    2.36       1.5  T
   5   -117.4098877 -0.629018E-06  0.370E-03    2.36       3.0  T
   6   -117.4098883 -0.695668E-06  0.124E-03    2.36       8.9  T
   7   -117.4098884 -0.221803E-07  0.677E-04    2.36      16.2  T
   8   -117.4098884 -0.631780E-08  0.360E-04    2.36      30.5  T
     SCC iter.                  ...        0 min,  1.040 sec
     gradient                   ...        0 min,  0.117 sec
 * total energy  :  -115.5310831 Eh     change       -0.1734937E-02 Eh
   gradient norm :     0.0115163 Eh/α   predicted    -0.1553734E-02 ( -10.44%)
   displ. norm   :     0.4590255 α      lambda       -0.1315659E-02
   maximum displ.:     0.1728268 α      in ANC's #9, #18, #7, ...

........................................................................
.............................. CYCLE    6 ..............................
........................................................................

 iter      E             dE          RMSdq      gap      omega  full diag
   1   -117.4088553 -0.117409E+03  0.846E-02    2.36       0.0  T
   2   -117.4088665 -0.111788E-04  0.469E-02    2.36       1.0  T
   3   -117.4088628  0.362634E-05  0.136E-02    2.36       1.0  T
   4   -117.4088679 -0.503956E-05  0.627E-03    2.37       1.8  T
   5   -117.4088685 -0.670665E-06  0.279E-03    2.37       3.9  T
   6   -117.4088688 -0.296945E-06  0.145E-03    2.37       7.6  T
   7   -117.4088689 -0.427349E-07  0.943E-04    2.37      11.6  T
   8   -117.4088689 -0.166852E-07  0.499E-04    2.37      22.0  T
     SCC iter.                  ...        0 min,  1.049 sec
     gradient                   ...        0 min,  0.116 sec
 * total energy  :  -115.5319851 Eh     change       -0.9020431E-03 Eh
   gradient norm :     0.0077635 Eh/α   predicted    -0.7964436E-03 ( -11.71%)
   displ. norm   :     0.4010667 α      lambda       -0.7979629E-03
   maximum displ.:     0.1471741 α      in ANC's #9, #5, #7, ...

........................................................................
.............................. CYCLE    7 ..............................
........................................................................

 iter      E             dE          RMSdq      gap      omega  full diag
   1   -117.4116772 -0.117412E+03  0.680E-02    2.39       0.0  T
   2   -117.4116825 -0.534463E-05  0.372E-02    2.38       1.0  T
   3   -117.4116800  0.253946E-05  0.105E-02    2.38       1.0  T
   4   -117.4116834 -0.342691E-05  0.386E-03    2.38       2.8  T
   5   -117.4116837 -0.317804E-06  0.180E-03    2.38       6.1  T
   6   -117.4116839 -0.142735E-06  0.766E-04    2.38      14.3  T
   7   -117.4116839 -0.184779E-07  0.470E-04    2.38      23.4  T
     SCC iter.                  ...        0 min,  0.859 sec
     gradient                   ...        0 min,  0.116 sec
 * total energy  :  -115.5325259 Eh     change       -0.5407588E-03 Eh
   gradient norm :     0.0070201 Eh/α   predicted    -0.4631883E-03 ( -14.34%)
   displ. norm   :     0.3324942 α      lambda       -0.4937162E-03
   maximum displ.:     0.1439896 α      in ANC's #5, #10, #9, ...

........................................................................
.............................. CYCLE    8 ..............................
........................................................................

 iter      E             dE          RMSdq      gap      omega  full diag
   1   -117.4134451 -0.117413E+03  0.557E-02    2.39       0.0  T
   2   -117.4134480 -0.290615E-05  0.307E-02    2.39       1.0  T
   3   -117.4134458  0.221774E-05  0.890E-03    2.39       1.2  T
   4   -117.4134482 -0.246742E-05  0.378E-03    2.39       2.9  T
   5   -117.4134486 -0.316943E-06  0.203E-03    2.39       5.4  T
   6   -117.4134488 -0.276943E-06  0.763E-04    2.39      14.4  T
   7   -117.4134489 -0.154621E-07  0.475E-04    2.39      23.1  T
     SCC iter.                  ...        0 min,  0.936 sec
     gradient                   ...        0 min,  0.116 sec
 * total energy  :  -115.5328732 Eh     change       -0.3473167E-03 Eh
   gradient norm :     0.0066248 Eh/α   predicted    -0.2741659E-03 ( -21.06%)
   displ. norm   :     0.3072113 α      lambda       -0.3619651E-03
   maximum displ.:     0.1542401 α      in ANC's #5, #10, #12, ...

........................................................................
.............................. CYCLE    9 ..............................
........................................................................

 iter      E             dE          RMSdq      gap      omega  full diag
   1   -117.4152837 -0.117415E+03  0.515E-02    2.40       0.0  T
   2   -117.4152886 -0.482757E-05  0.276E-02    2.40       1.0  T
   3   -117.4152879  0.623961E-06  0.847E-03    2.40       1.3  T
   4   -117.4152888 -0.844895E-06  0.363E-03    2.39       3.0  T
   5   -117.4152892 -0.406847E-06  0.164E-03    2.39       6.7  T
   6   -117.4152893 -0.830136E-07  0.824E-04    2.39      13.3  T
   7   -117.4152893 -0.146125E-07  0.547E-04    2.39      20.1  T
     SCC iter.                  ...        0 min,  0.838 sec
     gradient                   ...        0 min,  0.116 sec
 * total energy  :  -115.5331186 Eh     change       -0.2453834E-03 Eh
   gradient norm :     0.0047364 Eh/α   predicted    -0.1980641E-03 ( -19.28%)
   displ. norm   :     0.2879869 α      lambda       -0.2806188E-03
   maximum displ.:     0.1569133 α      in ANC's #5, #10, #12, ...

........................................................................
.............................. CYCLE   10 ..............................
........................................................................

 iter      E             dE          RMSdq      gap      omega  full diag
   1   -117.4156522 -0.117416E+03  0.428E-02    2.40       0.0  T
   2   -117.4156550 -0.281434E-05  0.234E-02    2.40       1.0  T
   3   -117.4156537  0.128522E-05  0.777E-03    2.40       1.4  T
   4   -117.4156554 -0.165051E-05  0.295E-03    2.40       3.7  T
   5   -117.4156556 -0.201818E-06  0.126E-03    2.40       8.7  T
   6   -117.4156556 -0.578370E-07  0.549E-04    2.40      20.0  T
   7   -117.4156556 -0.419665E-08  0.356E-04    2.40      30.8  T
     SCC iter.                  ...        0 min,  0.784 sec
     gradient                   ...        0 min,  0.117 sec
 * total energy  :  -115.5333016 Eh     change       -0.1829945E-03 Eh
   gradient norm :     0.0040748 Eh/α   predicted    -0.1519469E-03 ( -16.97%)
   displ. norm   :     0.2855315 α      lambda        0.3956038E-04
   maximum displ.:     0.1555105 α      in ANC's #5, #10, #12, ...

........................................................................
.............................. CYCLE   11 ..............................
........................................................................

 iter      E             dE          RMSdq      gap      omega  full diag
   1   -117.4150918 -0.117415E+03  0.426E-02    2.41       0.0  T
   2   -117.4150947 -0.285592E-05  0.233E-02    2.41       1.0  T
   3   -117.4150934  0.124054E-05  0.774E-03    2.41       1.4  T
   4   -117.4150950 -0.157285E-05  0.306E-03    2.41       3.6  T
   5   -117.4150952 -0.221538E-06  0.134E-03    2.41       8.2  T
   6   -117.4150953 -0.670377E-07  0.636E-04    2.41      17.2  T
   7   -117.4150953 -0.767427E-08  0.412E-04    2.41      26.6  T
     SCC iter.                  ...        0 min,  0.855 sec
     gradient                   ...        0 min,  0.117 sec
 * total energy  :  -115.5332880 Eh     change        0.1360495E-04 Eh
   gradient norm :     0.0077281 Eh/α   predicted     0.2138761E-04 (  57.20%)
   displ. norm   :     0.0873899 α      lambda       -0.2544425E-03
   maximum displ.:     0.0320716 α      in ANC's #40, #18, #14, ...

........................................................................
.............................. CYCLE   12 ..............................
........................................................................

 iter      E             dE          RMSdq      gap      omega  full diag
   1   -117.4154290 -0.117415E+03  0.343E-02    2.40       0.0  T
   2   -117.4154326 -0.354339E-05  0.163E-02    2.40       1.0  T
   3   -117.4154324  0.171765E-06  0.601E-03    2.40       1.8  T
   4   -117.4154326 -0.217762E-06  0.325E-03    2.40       3.4  T
   5   -117.4154330 -0.363932E-06  0.150E-03    2.40       7.3  T
   6   -117.4154330 -0.521392E-07  0.807E-04    2.40      13.6  T
   7   -117.4154331 -0.200876E-07  0.470E-04    2.40      23.4  T
     SCC iter.                  ...        0 min,  0.850 sec
     gradient                   ...        0 min,  0.118 sec
 * total energy  :  -115.5334652 Eh     change       -0.1772449E-03 Eh
   gradient norm :     0.0049627 Eh/α   predicted    -0.1281935E-03 ( -27.67%)
   displ. norm   :     0.1712802 α      lambda       -0.1929094E-03
   maximum displ.:     0.0865352 α      in ANC's #5, #3, #18, ...

........................................................................
.............................. CYCLE   13 ..............................
........................................................................

 iter      E             dE          RMSdq      gap      omega  full diag
   1   -117.4151471 -0.117415E+03  0.334E-02    2.40       0.0  T
   2   -117.4151485 -0.139501E-05  0.192E-02    2.40       1.0  T
   3   -117.4151475  0.104942E-05  0.580E-03    2.40       1.9  T
   4   -117.4151487 -0.120535E-05  0.204E-03    2.40       5.4  T
   5   -117.4151488 -0.130941E-06  0.110E-03    2.40      10.0  T
   6   -117.4151489 -0.719707E-07  0.485E-04    2.40      22.6  T
   7   -117.4151489 -0.846697E-08  0.283E-04    2.40      38.7  T
     SCC iter.                  ...        0 min,  0.726 sec
     gradient                   ...        0 min,  0.116 sec
 * total energy  :  -115.5336105 Eh     change       -0.1452799E-03 Eh
   gradient norm :     0.0028972 Eh/α   predicted    -0.9928462E-04 ( -31.66%)
   displ. norm   :     0.2882385 α      lambda       -0.1874483E-03
   maximum displ.:     0.1616877 α      in ANC's #5, #3, #27, ...

........................................................................
.............................. CYCLE   14 ..............................
........................................................................

 iter      E             dE          RMSdq      gap      omega  full diag
   1   -117.4144373 -0.117414E+03  0.450E-02    2.40       0.0  T
   2   -117.4144382 -0.977443E-06  0.265E-02    2.40       1.0  T
   3   -117.4144365  0.173765E-05  0.583E-03    2.40       1.9  T
   4   -117.4144385 -0.203798E-05  0.142E-03    2.41       7.7  T
   5   -117.4144386 -0.612112E-07  0.774E-04    2.40      14.2  T
   6   -117.4144386 -0.287886E-07  0.328E-04    2.40      33.4  T
     SCC iter.                  ...        0 min,  0.832 sec
     gradient                   ...        0 min,  0.120 sec
 * total energy  :  -115.5337523 Eh     change       -0.1417982E-03 Eh
   gradient norm :     0.0030365 Eh/α   predicted    -0.1015127E-03 ( -28.41%)
   displ. norm   :     0.3207797 α      lambda       -0.1502665E-03
   maximum displ.:     0.1896711 α      in ANC's #5, #3, #27, ...

........................................................................
.............................. CYCLE   15 ..............................
........................................................................

 iter      E             dE          RMSdq      gap      omega  full diag
   1   -117.4139012 -0.117414E+03  0.463E-02    2.41       0.0  T
   2   -117.4139019 -0.742067E-06  0.269E-02    2.41       1.0  T
   3   -117.4139004  0.152849E-05  0.545E-03    2.42       2.0  T
   4   -117.4139022 -0.182110E-05  0.146E-03    2.42       7.5  T
   5   -117.4139022 -0.494018E-07  0.611E-04    2.42      18.0  T
   6   -117.4139023 -0.142681E-07  0.240E-04    2.42      45.7  T
     SCC iter.                  ...        0 min,  0.726 sec
     gradient                   ...        0 min,  0.118 sec
 * total energy  :  -115.5338703 Eh     change       -0.1179492E-03 Eh
   gradient norm :     0.0033587 Eh/α   predicted    -0.8286937E-04 ( -29.74%)
   displ. norm   :     0.3178832 α      lambda       -0.1297497E-03
   maximum displ.:     0.1930014 α      in ANC's #5, #3, #27, ...

........................................................................
.............................. CYCLE   16 ..............................
........................................................................

 iter      E             dE          RMSdq      gap      omega  full diag
   1   -117.4143177 -0.117414E+03  0.441E-02    2.43       0.0  T
   2   -117.4143184 -0.692246E-06  0.255E-02    2.43       1.0  T
   3   -117.4143170  0.137253E-05  0.534E-03    2.43       2.1  T
   4   -117.4143187 -0.163014E-05  0.153E-03    2.43       7.2  T
   5   -117.4143187 -0.348419E-07  0.670E-04    2.43      16.4  T
   6   -117.4143187 -0.274097E-07  0.282E-04    2.43      39.0  T
     SCC iter.                  ...        0 min,  0.736 sec
     gradient                   ...        0 min,  0.120 sec
 * total energy  :  -115.5339732 Eh     change       -0.1028947E-03 Eh
   gradient norm :     0.0027994 Eh/α   predicted    -0.7143743E-04 ( -30.57%)
   displ. norm   :     0.3153047 α      lambda       -0.1129447E-03
   maximum displ.:     0.1921733 α      in ANC's #5, #3, #27, ...

........................................................................
.............................. CYCLE   17 ..............................
........................................................................

 iter      E             dE          RMSdq      gap      omega  full diag
   1   -117.4151191 -0.117415E+03  0.433E-02    2.44       0.0  T
   2   -117.4151198 -0.658989E-06  0.251E-02    2.44       1.0  T
   3   -117.4151185  0.126585E-05  0.503E-03    2.44       2.2  T
   4   -117.4151200 -0.149449E-05  0.135E-03    2.44       8.1  T
   5   -117.4151200 -0.233062E-07  0.698E-04    2.44      15.7  T
   6   -117.4151201 -0.348200E-07  0.259E-04    2.44      42.4  T
     SCC iter.                  ...        0 min,  0.695 sec
     gradient                   ...        0 min,  0.121 sec
 * total energy  :  -115.5340614 Eh     change       -0.8825965E-04 Eh
   gradient norm :     0.0020874 Eh/α   predicted    -0.6209008E-04 ( -29.65%)
   displ. norm   :     0.3016069 α      lambda       -0.9046635E-04
   maximum displ.:     0.1801350 α      in ANC's #5, #3, #1, ...

........................................................................
.............................. CYCLE   18 ..............................
........................................................................

 iter      E             dE          RMSdq      gap      omega  full diag
   1   -117.4159169 -0.117416E+03  0.418E-02    2.45       0.0  T
   2   -117.4159175 -0.578372E-06  0.243E-02    2.45       1.0  T
   3   -117.4159167  0.782352E-06  0.412E-03    2.45       2.7  T
   4   -117.4159177 -0.940772E-06  0.126E-03    2.45       8.7  T
   5   -117.4159177 -0.388401E-07  0.569E-04    2.45      19.3  T
   6   -117.4159177 -0.161992E-07  0.275E-04    2.45      40.0  T
     SCC iter.                  ...        0 min,  0.772 sec
     gradient                   ...        0 min,  0.122 sec
 * total energy  :  -115.5341312 Eh     change       -0.6982428E-04 Eh
   gradient norm :     0.0019632 Eh/α   predicted    -0.4934921E-04 ( -29.32%)
   displ. norm   :     0.4069381 α      lambda       -0.6949360E-04
   maximum displ.:     0.2333431 α      in ANC's #5, #3, #1, ...

........................................................................
.............................. CYCLE   19 ..............................
........................................................................

 iter      E             dE          RMSdq      gap      omega  full diag
   1   -117.4164968 -0.117416E+03  0.579E-02    2.45       0.0  T
   2   -117.4164979 -0.109392E-05  0.335E-02    2.46       1.0  T
   3   -117.4164970  0.927472E-06  0.501E-03    2.46       2.2  T
   4   -117.4164981 -0.112667E-05  0.200E-03    2.46       5.5  T
   5   -117.4164982 -0.138841E-06  0.674E-04    2.46      16.3  T
   6   -117.4164983 -0.136164E-07  0.380E-04    2.46      28.9  T
     SCC iter.                  ...        0 min,  0.759 sec
     gradient                   ...        0 min,  0.116 sec
 * total energy  :  -115.5341999 Eh     change       -0.6863751E-04 Eh
   gradient norm :     0.0024317 Eh/α   predicted    -0.3730624E-04 ( -45.65%)
   displ. norm   :     0.1321442 α      lambda       -0.3453443E-04
   maximum displ.:     0.0675254 α      in ANC's #5, #3, #1, ...

........................................................................
.............................. CYCLE   20 ..............................
........................................................................

 iter      E             dE          RMSdq      gap      omega  full diag
   1   -117.4165866 -0.117417E+03  0.196E-02    2.46       0.0  T
   2   -117.4165867 -0.150010E-06  0.110E-02    2.46       1.0  T
   3   -117.4165867  0.476578E-07  0.175E-03    2.46       6.3  T
   4   -117.4165867 -0.235538E-07  0.999E-04    2.46      11.0  T
   5   -117.4165868 -0.572617E-07  0.304E-04    2.46      36.2  T
     SCC iter.                  ...        0 min,  0.652 sec
     gradient                   ...        0 min,  0.120 sec
 * total energy  :  -115.5342297 Eh     change       -0.2978910E-04 Eh
   gradient norm :     0.0019144 Eh/α   predicted    -0.1756933E-04 ( -41.02%)
   displ. norm   :     0.3607214 α      lambda       -0.7060396E-04
   maximum displ.:     0.1731733 α      in ANC's #1, #3, #5, ...
 * RMSD in coord.:     0.4928843 α      energy gain  -0.3556460E-01 Eh

generating ANC from exact Hessian ...
Using Lindh-Hessian (1995)
 Shifting diagonal of input Hessian by    9.9271386381713303E-003
 Lowest  eigenvalues of input Hessian
    0.000000    0.000000    0.000000    0.000000    0.000000    0.000000
    0.010000    0.010024    0.010162    0.010223    0.010317    0.010457
    0.010586    0.010740    0.010811    0.010962    0.011069    0.011323
 Highest eigenvalues
    2.002545    2.014286    2.029142    2.074085    2.115847    2.126097


........................................................................
.............................. CYCLE   21 ..............................
........................................................................

 iter      E             dE          RMSdq      gap      omega  full diag
   1   -117.4170227 -0.117417E+03  0.586E-02    2.45       0.0  T
   2   -117.4170245 -0.179116E-05  0.324E-02    2.45       1.0  T
   3   -117.4170243  0.126845E-06  0.577E-03    2.45       1.9  T
   4   -117.4170244 -0.299406E-07  0.301E-03    2.45       3.6  T
   5   -117.4170248 -0.482372E-06  0.575E-04    2.45      19.1  T
   6   -117.4170248 -0.109590E-07  0.261E-04    2.45      42.1  T
     SCC iter.                  ...        0 min,  0.835 sec
     gradient                   ...        0 min,  0.117 sec
 * total energy  :  -115.5342853 Eh     change       -0.5565770E-04 Eh
   gradient norm :     0.0028847 Eh/α   predicted     0.0000000E+00 (-100.00%)
   displ. norm   :     0.0328146 α      lambda       -0.3160375E-04
   maximum displ.:     0.0125265 α      in ANC's #3, #4, #16, ...

........................................................................
.............................. CYCLE   22 ..............................
........................................................................

 iter      E             dE          RMSdq      gap      omega  full diag
   1   -117.4162644 -0.117416E+03  0.118E-02    2.46       0.0  T
   2   -117.4162647 -0.286156E-06  0.590E-03    2.46       1.9  T
   3   -117.4162647  0.224562E-07  0.168E-03    2.46       6.5  T
   4   -117.4162647 -0.155488E-07  0.952E-04    2.46      11.5  T
   5   -117.4162648 -0.414166E-07  0.366E-04    2.46      30.0  T
     SCC iter.                  ...        0 min,  0.533 sec
     gradient                   ...        0 min,  0.116 sec
 * total energy  :  -115.5343076 Eh     change       -0.2229295E-04 Eh
   gradient norm :     0.0010834 Eh/α   predicted    -0.1587061E-04 ( -28.81%)
   displ. norm   :     0.1103443 α      lambda       -0.3550026E-04
   maximum displ.:     0.0463024 α      in ANC's #3, #16, #4, ...

........................................................................
.............................. CYCLE   23 ..............................
........................................................................

 iter      E             dE          RMSdq      gap      omega  full diag
   1   -117.4149453 -0.117415E+03  0.210E-02    2.46       0.0  T
   2   -117.4149464 -0.114739E-05  0.116E-02    2.46       1.0  T
   3   -117.4149463  0.114887E-06  0.344E-03    2.45       3.2  T
   4   -117.4149464 -0.957301E-07  0.157E-03    2.45       7.0  T
   5   -117.4149466 -0.143375E-06  0.647E-04    2.45      17.0  T
   6   -117.4149466 -0.102421E-07  0.331E-04    2.45      33.2  T
     SCC iter.                  ...        0 min,  0.763 sec
     gradient                   ...        0 min,  0.119 sec
 * total energy  :  -115.5343226 Eh     change       -0.1495527E-04 Eh
   gradient norm :     0.0032720 Eh/α   predicted    -0.1785942E-04 (  19.42%)
   displ. norm   :     0.0484618 α      lambda       -0.2858828E-04
   maximum displ.:     0.0215967 α      in ANC's #3, #4, #1, ...

........................................................................
.............................. CYCLE   24 ..............................
........................................................................

 iter      E             dE          RMSdq      gap      omega  full diag
   1   -117.4151571 -0.117415E+03  0.152E-02    2.46       0.0  T
   2   -117.4151576 -0.483755E-06  0.719E-03    2.46       1.5  T
   3   -117.4151576  0.916592E-08  0.212E-03    2.46       5.2  T
   4   -117.4151576  0.116259E-07  0.121E-03    2.46       9.0  T
   5   -117.4151576 -0.706496E-07  0.508E-04    2.46      21.6  T
   6   -117.4151576 -0.561673E-08  0.259E-04    2.46      42.5  T
     SCC iter.                  ...        0 min,  0.818 sec
     gradient                   ...        0 min,  0.118 sec
 * total energy  :  -115.5343432 Eh     change       -0.2063263E-04 Eh
   gradient norm :     0.0025815 Eh/α   predicted    -0.1436145E-04 ( -30.39%)
   displ. norm   :     0.0740530 α      lambda       -0.3120241E-04
   maximum displ.:     0.0365819 α      in ANC's #3, #4, #1, ...

........................................................................
.............................. CYCLE   25 ..............................
........................................................................

 iter      E             dE          RMSdq      gap      omega  full diag
   1   -117.4160428 -0.117416E+03  0.137E-02    2.45       0.0  T
   2   -117.4160431 -0.271693E-06  0.739E-03    2.45       1.5  T
   3   -117.4160431 -0.807233E-09  0.173E-03    2.45       6.3  T
   4   -117.4160431 -0.905948E-08  0.845E-04    2.45      13.0  T
   5   -117.4160431 -0.205752E-07  0.396E-04    2.45      27.7  T
     SCC iter.                  ...        0 min,  0.604 sec
     gradient                   ...        0 min,  0.117 sec
 * total energy  :  -115.5343653 Eh     change       -0.2214404E-04 Eh
   gradient norm :     0.0010345 Eh/α   predicted    -0.1569022E-04 ( -29.14%)
   displ. norm   :     0.1535724 α      lambda       -0.2246818E-04
   maximum displ.:     0.0756030 α      in ANC's #3, #4, #1, ...

........................................................................
.............................. CYCLE   26 ..............................
........................................................................

 iter      E             dE          RMSdq      gap      omega  full diag
   1   -117.4166661 -0.117417E+03  0.212E-02    2.45       0.0  T
   2   -117.4166663 -0.231559E-06  0.120E-02    2.45       1.0  T
   3   -117.4166662  0.928959E-07  0.190E-03    2.45       5.8  T
   4   -117.4166663 -0.815779E-07  0.102E-03    2.45      10.8  T
   5   -117.4166663 -0.569473E-07  0.391E-04    2.45      28.1  T
   6   -117.4166664 -0.723530E-08  0.195E-04    2.45      56.2  T
     SCC iter.                  ...        0 min,  0.847 sec
     gradient                   ...        0 min,  0.116 sec
 * total energy  :  -115.5343876 Eh     change       -0.2225281E-04 Eh
   gradient norm :     0.0017987 Eh/α   predicted    -0.1135576E-04 ( -48.97%)
   displ. norm   :     0.1562641 α      lambda       -0.1957341E-04
   maximum displ.:     0.0793066 α      in ANC's #3, #4, #1, ...

........................................................................
.............................. CYCLE   27 ..............................
........................................................................

 iter      E             dE          RMSdq      gap      omega  full diag
   1   -117.4165894 -0.117417E+03  0.218E-02    2.45       0.0  T
   2   -117.4165899 -0.476440E-06  0.120E-02    2.45       1.0  T
   3   -117.4165896  0.206842E-06  0.311E-03    2.45       3.5  T
   4   -117.4165899 -0.232086E-06  0.142E-03    2.45       7.7  T
   5   -117.4165900 -0.734054E-07  0.480E-04    2.45      22.9  T
   6   -117.4165900 -0.125375E-07  0.161E-04    2.45      68.3  T
     SCC iter.                  ...        0 min,  0.688 sec
     gradient                   ...        0 min,  0.122 sec
 * total energy  :  -115.5344081 Eh     change       -0.2053769E-04 Eh
   gradient norm :     0.0015597 Eh/α   predicted    -0.9893789E-05 ( -51.83%)
   displ. norm   :     0.2650861 α      lambda       -0.3122552E-04
   maximum displ.:     0.1356688 α      in ANC's #1, #3, #4, ...

........................................................................
.............................. CYCLE   28 ..............................
........................................................................

 iter      E             dE          RMSdq      gap      omega  full diag
   1   -117.4158345 -0.117416E+03  0.325E-02    2.46       0.0  T
   2   -117.4158353 -0.861997E-06  0.182E-02    2.46       1.0  T
   3   -117.4158340  0.128712E-05  0.501E-03    2.46       2.2  T
   4   -117.4158353 -0.130168E-05  0.213E-03    2.46       5.1  T
   5   -117.4158356 -0.222922E-06  0.939E-04    2.46      11.7  T
   6   -117.4158356 -0.434449E-07  0.333E-04    2.46      33.0  T
     SCC iter.                  ...        0 min,  0.630 sec
     gradient                   ...        0 min,  0.120 sec
 * total energy  :  -115.5344307 Eh     change       -0.2253900E-04 Eh
   gradient norm :     0.0013034 Eh/α   predicted    -0.1610178E-04 ( -28.56%)
   displ. norm   :     0.1267075 α      lambda       -0.1682998E-04
   maximum displ.:     0.0706765 α      in ANC's #1, #3, #4, ...

........................................................................
.............................. CYCLE   29 ..............................
........................................................................

 iter      E             dE          RMSdq      gap      omega  full diag
   1   -117.4163777 -0.117416E+03  0.187E-02    2.46       0.0  T
   2   -117.4163781 -0.433168E-06  0.955E-03    2.46       1.1  T
   3   -117.4163780  0.126752E-06  0.286E-03    2.46       3.8  T
   4   -117.4163782 -0.162587E-06  0.146E-03    2.46       7.5  T
   5   -117.4163782 -0.491958E-07  0.545E-04    2.46      20.1  T
   6   -117.4163782 -0.196279E-07  0.204E-04    2.46      53.9  T
     SCC iter.                  ...        0 min,  0.774 sec
     gradient                   ...        0 min,  0.119 sec
 * total energy  :  -115.5344506 Eh     change       -0.1991828E-04 Eh
   gradient norm :     0.0010800 Eh/α   predicted    -0.8476536E-05 ( -57.44%)
   displ. norm   :     0.2155442 α      lambda       -0.2430071E-04
   maximum displ.:     0.1316551 α      in ANC's #1, #3, #4, ...

........................................................................
.............................. CYCLE   30 ..............................
........................................................................

 iter      E             dE          RMSdq      gap      omega  full diag
   1   -117.4168183 -0.117417E+03  0.295E-02    2.46       0.0  T
   2   -117.4168193 -0.968537E-06  0.150E-02    2.46       1.0  T
   3   -117.4168189  0.327907E-06  0.440E-03    2.46       2.5  T
   4   -117.4168192 -0.298631E-06  0.244E-03    2.46       4.5  T
   5   -117.4168194 -0.202320E-06  0.927E-04    2.46      11.8  T
   6   -117.4168195 -0.581102E-07  0.354E-04    2.46      31.0  T
     SCC iter.                  ...        0 min,  0.765 sec
     gradient                   ...        0 min,  0.118 sec
 * total energy  :  -115.5344766 Eh     change       -0.2605062E-04 Eh
   gradient norm :     0.0009736 Eh/α   predicted    -0.1240370E-04 ( -52.39%)
   displ. norm   :     0.2182279 α      lambda       -0.1574099E-04
   maximum displ.:     0.1362311 α      in ANC's #1, #3, #4, ...

........................................................................
.............................. CYCLE   31 ..............................
........................................................................

 iter      E             dE          RMSdq      gap      omega  full diag
   1   -117.4167965 -0.117417E+03  0.268E-02    2.46       0.0  T
   2   -117.4167972 -0.692226E-06  0.137E-02    2.46       1.0  T
   3   -117.4167969  0.342666E-06  0.391E-03    2.46       2.8  T
   4   -117.4167971 -0.218568E-06  0.233E-03    2.46       4.7  T
   5   -117.4167973 -0.264847E-06  0.724E-04    2.46      15.2  T
   6   -117.4167974 -0.381379E-07  0.257E-04    2.46      42.6  T
     SCC iter.                  ...        0 min,  0.703 sec
     gradient                   ...        0 min,  0.121 sec
 * total energy  :  -115.5344936 Eh     change       -0.1698904E-04 Eh
   gradient norm :     0.0008488 Eh/α   predicted    -0.8041617E-05 ( -52.67%)
   displ. norm   :     0.1274394 α      lambda       -0.1006538E-04
   maximum displ.:     0.0769603 α      in ANC's #1, #3, #4, ...

........................................................................
.............................. CYCLE   32 ..............................
........................................................................

 iter      E             dE          RMSdq      gap      omega  full diag
   1   -117.4169674 -0.117417E+03  0.153E-02    2.46       0.0  T
   2   -117.4169677 -0.230049E-06  0.796E-03    2.46       1.4  T
   3   -117.4169675  0.120198E-06  0.224E-03    2.46       4.9  T
   4   -117.4169676 -0.774254E-07  0.134E-03    2.46       8.2  T
   5   -117.4169677 -0.891121E-07  0.448E-04    2.46      24.5  T
   6   -117.4169677 -0.126272E-07  0.177E-04    2.46      62.0  T
     SCC iter.                  ...        0 min,  0.688 sec
     gradient                   ...        0 min,  0.116 sec
 * total energy  :  -115.5345061 Eh     change       -0.1245231E-04 Eh
   gradient norm :     0.0006627 Eh/α   predicted    -0.5070885E-05 ( -59.28%)
   displ. norm   :     0.3023696 α      lambda       -0.2030511E-04
   maximum displ.:     0.1767881 α      in ANC's #1, #3, #4, ...

........................................................................
.............................. CYCLE   33 ..............................
........................................................................

 iter      E             dE          RMSdq      gap      omega  full diag
   1   -117.4162906 -0.117416E+03  0.353E-02    2.47       0.0  T
   2   -117.4162918 -0.113305E-05  0.182E-02    2.47       1.0  T
   3   -117.4162912  0.530039E-06  0.487E-03    2.47       2.3  T
   4   -117.4162915 -0.275907E-06  0.302E-03    2.47       3.6  T
   5   -117.4162920 -0.486748E-06  0.861E-04    2.47      12.7  T
   6   -117.4162921 -0.537974E-07  0.293E-04    2.47      37.4  T
     SCC iter.                  ...        0 min,  0.548 sec
     gradient                   ...        0 min,  0.116 sec
 * total energy  :  -115.5345267 Eh     change       -0.2065860E-04 Eh
   gradient norm :     0.0010232 Eh/α   predicted    -0.1056640E-04 ( -48.85%)
   displ. norm   :     0.2360908 α      lambda       -0.1225777E-04
   maximum displ.:     0.1340728 α      in ANC's #1, #3, #4, ...

........................................................................
.............................. CYCLE   34 ..............................
........................................................................

 iter      E             dE          RMSdq      gap      omega  full diag
   1   -117.4164707 -0.117416E+03  0.245E-02    2.47       0.0  T
   2   -117.4164711 -0.440760E-06  0.134E-02    2.47       1.0  T
   3   -117.4164707  0.423307E-06  0.354E-03    2.47       3.1  T
   4   -117.4164711 -0.370404E-06  0.191E-03    2.47       5.7  T
   5   -117.4164713 -0.166811E-06  0.663E-04    2.47      16.6  T
   6   -117.4164713 -0.307208E-07  0.262E-04    2.47      41.9  T
     SCC iter.                  ...        0 min,  0.568 sec
     gradient                   ...        0 min,  0.117 sec
 * total energy  :  -115.5345394 Eh     change       -0.1265877E-04 Eh
   gradient norm :     0.0010487 Eh/α   predicted    -0.6281578E-05 ( -50.38%)
   displ. norm   :     0.2001880 α      lambda       -0.1008151E-04
   maximum displ.:     0.1067377 α      in ANC's #1, #3, #4, ...

........................................................................
.............................. CYCLE   35 ..............................
........................................................................

 iter      E             dE          RMSdq      gap      omega  full diag
   1   -117.4164418 -0.117416E+03  0.212E-02    2.47       0.0  T
   2   -117.4164422 -0.339925E-06  0.116E-02    2.47       1.0  T
   3   -117.4164418  0.307825E-06  0.313E-03    2.47       3.5  T
   4   -117.4164422 -0.305594E-06  0.154E-03    2.47       7.1  T
   5   -117.4164422 -0.879045E-07  0.559E-04    2.47      19.6  T
   6   -117.4164423 -0.242290E-07  0.193E-04    2.47      56.9  T
     SCC iter.                  ...        0 min,  0.847 sec
     gradient                   ...        0 min,  0.117 sec
 * total energy  :  -115.5345502 Eh     change       -0.1083372E-04 Eh
   gradient norm :     0.0008313 Eh/α   predicted    -0.5131925E-05 ( -52.63%)
   displ. norm   :     0.1410289 α      lambda       -0.9275610E-05
   maximum displ.:     0.0658339 α      in ANC's #1, #3, #8, ...

........................................................................
.............................. CYCLE   36 ..............................
........................................................................

 iter      E             dE          RMSdq      gap      omega  full diag
   1   -117.4169332 -0.117417E+03  0.135E-02    2.47       0.0  T
   2   -117.4169333 -0.129396E-06  0.784E-03    2.47       1.4  T
   3   -117.4169331  0.222772E-06  0.214E-03    2.47       5.1  T
   4   -117.4169333 -0.259477E-06  0.528E-04    2.47      20.8  T
   5   -117.4169333 -0.729779E-08  0.282E-04    2.47      39.0  T
     SCC iter.                  ...        0 min,  0.561 sec
     gradient                   ...        0 min,  0.120 sec
 * total energy  :  -115.5345597 Eh     change       -0.9458059E-05 Eh
   gradient norm :     0.0005236 Eh/α   predicted    -0.4681882E-05 ( -50.50%)
   displ. norm   :     0.0811336 α      lambda       -0.5854540E-05
   maximum displ.:     0.0329451 α      in ANC's #8, #10, #1, ...

........................................................................
.............................. CYCLE   37 ..............................
........................................................................

 iter      E             dE          RMSdq      gap      omega  full diag
   1   -117.4166952 -0.117417E+03  0.879E-03    2.47       0.0  T
   2   -117.4166953 -0.415534E-07  0.503E-03    2.47       2.2  T
   3   -117.4166952  0.877618E-07  0.134E-03    2.47       8.2  T
   4   -117.4166953 -0.104063E-06  0.332E-04    2.47      33.1  T
   5   -117.4166953 -0.149851E-08  0.191E-04    2.47      57.3  T
     SCC iter.                  ...        0 min,  0.721 sec
     gradient                   ...        0 min,  0.120 sec
 * total energy  :  -115.5345660 Eh     change       -0.6334374E-05 Eh
   gradient norm :     0.0004988 Eh/α   predicted    -0.2938496E-05 ( -53.61%)
   displ. norm   :     0.0948833 α      lambda       -0.5457727E-05
   maximum displ.:     0.0417657 α      in ANC's #1, #2, #8, ...

........................................................................
.............................. CYCLE   38 ..............................
........................................................................

 iter      E             dE          RMSdq      gap      omega  full diag
   1   -117.4167209 -0.117417E+03  0.957E-03    2.48       0.0  T
   2   -117.4167209 -0.445115E-07  0.551E-03    2.48       2.0  T
   3   -117.4167209  0.505246E-07  0.108E-03    2.48      10.2  T
   4   -117.4167209 -0.639299E-07  0.354E-04    2.48      31.0  T
   5   -117.4167209 -0.231520E-08  0.153E-04    2.48      72.0  T
     SCC iter.                  ...        0 min,  0.642 sec
     gradient                   ...        0 min,  0.121 sec
 * total energy  :  -115.5345717 Eh     change       -0.5662787E-05 Eh
   gradient norm :     0.0006241 Eh/α   predicted    -0.2742232E-05 ( -51.57%)
   displ. norm   :     0.0681209 α      lambda       -0.3698233E-05
   maximum displ.:     0.0351217 α      in ANC's #1, #2, #8, ...

........................................................................
.............................. CYCLE   39 ..............................
........................................................................

 iter      E             dE          RMSdq      gap      omega  full diag
   1   -117.4165992 -0.117417E+03  0.709E-03    2.48       0.0  T
   2   -117.4165992 -0.221191E-07  0.410E-03    2.48       2.7  T
   3   -117.4165992  0.296033E-07  0.773E-04    2.48      14.2  T
   4   -117.4165992 -0.362771E-07  0.266E-04    2.48      41.2  T
     SCC iter.                  ...        0 min,  0.508 sec
     gradient                   ...        0 min,  0.120 sec
 * total energy  :  -115.5345758 Eh     change       -0.4135680E-05 Eh
   gradient norm :     0.0004743 Eh/α   predicted    -0.1856002E-05 ( -55.12%)
   displ. norm   :     0.0532373 α      lambda       -0.3145018E-05
   maximum displ.:     0.0275757 α      in ANC's #2, #1, #27, ...

........................................................................
.............................. CYCLE   40 ..............................
........................................................................

 iter      E             dE          RMSdq      gap      omega  full diag
   1   -117.4167268 -0.117417E+03  0.656E-03    2.48       0.0  T
   2   -117.4167268 -0.195189E-07  0.380E-03    2.48       2.9  T
   3   -117.4167267  0.699725E-07  0.102E-03    2.48      10.8  T
   4   -117.4167268 -0.783312E-07  0.279E-04    2.48      39.4  T
   5   -117.4167268 -0.173860E-08  0.163E-04    2.48      67.4  T
     SCC iter.                  ...        0 min,  0.716 sec
     gradient                   ...        0 min,  0.119 sec
 * total energy  :  -115.5345793 Eh     change       -0.3450009E-05 Eh
   gradient norm :     0.0003007 Eh/α   predicted    -0.1579022E-05 ( -54.23%)
   displ. norm   :     0.0524933 α      lambda       -0.2544982E-05
   maximum displ.:     0.0304670 α      in ANC's #2, #1, #14, ...

........................................................................
.............................. CYCLE   41 ..............................
........................................................................

 iter      E             dE          RMSdq      gap      omega  full diag
   1   -117.4166283 -0.117417E+03  0.676E-03    2.48       0.0  T
   2   -117.4166283 -0.209149E-07  0.391E-03    2.48       2.8  T
   3   -117.4166283  0.306965E-07  0.805E-04    2.48      13.6  T
   4   -117.4166283 -0.378706E-07  0.236E-04    2.48      46.6  T
     SCC iter.                  ...        0 min,  0.530 sec
     gradient                   ...        0 min,  0.118 sec
 * total energy  :  -115.5345821 Eh     change       -0.2796356E-05 Eh
   gradient norm :     0.0003841 Eh/α   predicted    -0.1275251E-05 ( -54.40%)
   displ. norm   :     0.0554590 α      lambda       -0.2236737E-05
   maximum displ.:     0.0336498 α      in ANC's #2, #1, #14, ...

........................................................................
.............................. CYCLE   42 ..............................
........................................................................

 iter      E             dE          RMSdq      gap      omega  full diag
   1   -117.4166283 -0.117417E+03  0.704E-03    2.48       0.0  T
   2   -117.4166283 -0.155012E-07  0.408E-03    2.48       2.7  T
   3   -117.4166283  0.257823E-07  0.665E-04    2.48      16.5  T
   4   -117.4166283 -0.295077E-07  0.260E-04    2.48      42.3  T
     SCC iter.                  ...        0 min,  0.373 sec
     gradient                   ...        0 min,  0.122 sec
 * total energy  :  -115.5345847 Eh     change       -0.2579100E-05 Eh
   gradient norm :     0.0004320 Eh/α   predicted    -0.1120904E-05 ( -56.54%)
   displ. norm   :     0.0640260 α      lambda       -0.2233339E-05
   maximum displ.:     0.0375869 α      in ANC's #2, #1, #4, ...
 * RMSD in coord.:     0.2567841 α      energy gain  -0.3549898E-03 Eh

generating ANC from exact Hessian ...
Using Lindh-Hessian (1995)
 Shifting diagonal of input Hessian by    9.9222021807453854E-003
 Lowest  eigenvalues of input Hessian
    0.000000    0.000000    0.000000    0.000000    0.000000    0.000000
    0.010000    0.010038    0.010162    0.010223    0.010305    0.010457
    0.010599    0.010694    0.010813    0.010935    0.011081    0.011307
 Highest eigenvalues
    2.006519    2.014813    2.029700    2.075011    2.115743    2.127201


........................................................................
.............................. CYCLE   43 ..............................
........................................................................

 iter      E             dE          RMSdq      gap      omega  full diag
   1   -117.4166592 -0.117417E+03  0.766E-03    2.48       0.0  T
   2   -117.4166592 -0.193348E-07  0.450E-03    2.48       2.4  T
   3   -117.4166592  0.389347E-07  0.824E-04    2.48      13.3  T
   4   -117.4166592 -0.430291E-07  0.305E-04    2.48      36.0  T
     SCC iter.                  ...        0 min,  0.436 sec
     gradient                   ...        0 min,  0.117 sec
 * total energy  :  -115.5345872 Eh     change       -0.2572355E-05 Eh
   gradient norm :     0.0003466 Eh/α   predicted     0.0000000E+00 (-100.00%)
   displ. norm   :     0.0099141 α      lambda       -0.7203967E-06
   maximum displ.:     0.0050132 α      in ANC's #2, #6, #34, ...

........................................................................
.............................. CYCLE   44 ..............................
........................................................................

 iter      E             dE          RMSdq      gap      omega  full diag
   1   -117.4167423 -0.117417E+03  0.248E-03    2.48       0.0  T
   2   -117.4167423 -0.102645E-07  0.124E-03    2.48       8.8  T
   3   -117.4167423  0.164739E-07  0.581E-04    2.48      18.9  T
   4   -117.4167423 -0.198042E-07  0.221E-04    2.48      49.7  T
     SCC iter.                  ...        0 min,  0.433 sec
     gradient                   ...        0 min,  0.116 sec
 * total energy  :  -115.5345880 Eh     change       -0.7452529E-06 Eh
   gradient norm :     0.0002142 Eh/α   predicted    -0.3775526E-06 ( -49.34%)
   displ. norm   :     0.0283885 α      lambda       -0.1543893E-05
   maximum displ.:     0.0121375 α      in ANC's #6, #2, #34, ...

........................................................................
.............................. CYCLE   45 ..............................
........................................................................

 iter      E             dE          RMSdq      gap      omega  full diag
   1   -117.4168573 -0.117417E+03  0.582E-03    2.48       0.0  T
   2   -117.4168573 -0.561455E-07  0.306E-03    2.48       3.6  T
   3   -117.4168573  0.963215E-08  0.960E-04    2.48      11.4  T
   4   -117.4168574 -0.172612E-07  0.425E-04    2.48      25.8  T
     SCC iter.                  ...        0 min,  0.515 sec
     gradient                   ...        0 min,  0.116 sec
 * total energy  :  -115.5345891 Eh     change       -0.1089447E-05 Eh
   gradient norm :     0.0004081 Eh/α   predicted    -0.7812545E-06 ( -28.29%)
   displ. norm   :     0.0167934 α      lambda       -0.8027898E-06
   maximum displ.:     0.0096558 α      in ANC's #2, #6, #34, ...

........................................................................
.............................. CYCLE   46 ..............................
........................................................................

 iter      E             dE          RMSdq      gap      omega  full diag
   1   -117.4167931 -0.117417E+03  0.313E-03    2.48       0.0  T
   2   -117.4167931 -0.135989E-07  0.172E-03    2.48       6.4  T
   3   -117.4167931  0.274468E-07  0.741E-04    2.48      14.8  T
   4   -117.4167931 -0.292484E-07  0.309E-04    2.48      35.5  T
     SCC iter.                  ...        0 min,  0.551 sec
     gradient                   ...        0 min,  0.117 sec
 * total energy  :  -115.5345897 Eh     change       -0.6450832E-06 Eh
   gradient norm :     0.0003256 Eh/α   predicted    -0.4031960E-06 ( -37.50%)
   displ. norm   :     0.0139643 α      lambda       -0.4964179E-06
   maximum displ.:     0.0077898 α      in ANC's #2, #6, #1, ...

........................................................................
.............................. CYCLE   47 ..............................
........................................................................

 iter      E             dE          RMSdq      gap      omega  full diag
   1   -117.4167207 -0.117417E+03  0.213E-03    2.48       0.0  T
   2   -117.4167207 -0.318953E-08  0.122E-03    2.48       9.0  T
   3   -117.4167207  0.126613E-07  0.418E-04    2.48      26.3  T
   4   -117.4167207 -0.133374E-07  0.140E-04    2.48      78.2  T
     SCC iter.                  ...        0 min,  0.483 sec
     gradient                   ...        0 min,  0.117 sec
 * total energy  :  -115.5345903 Eh     change       -0.6294406E-06 Eh
   gradient norm :     0.0002264 Eh/α   predicted    -0.2568230E-06 ( -59.20%)
   displ. norm   :     0.0349938 α      lambda       -0.9952043E-06
   maximum displ.:     0.0204101 α      in ANC's #2, #6, #1, ...

........................................................................
.............................. CYCLE   48 ..............................
........................................................................

 iter      E             dE          RMSdq      gap      omega  full diag
   1   -117.4166916 -0.117417E+03  0.518E-03    2.48       0.0  T
   2   -117.4166916 -0.123902E-07  0.300E-03    2.48       3.7  T
   3   -117.4166916  0.205460E-07  0.629E-04    2.48      17.4  T
   4   -117.4166916 -0.236548E-07  0.204E-04    2.48      53.7  T
     SCC iter.                  ...        0 min,  0.461 sec
     gradient                   ...        0 min,  0.114 sec
 * total energy  :  -115.5345914 Eh     change       -0.1040811E-05 Eh
   gradient norm :     0.0002447 Eh/α   predicted    -0.5019556E-06 ( -51.77%)
   displ. norm   :     0.0349938 α      lambda        0.0000000E+00
   maximum displ.:     0.0204101 α      in ANC's #2, #6, #1, ...

........................................................................
.............................. CYCLE   49 ..............................
........................................................................

 iter      E             dE          RMSdq      gap      omega  full diag
   1   -117.4166505 -0.117417E+03  0.518E-03    2.48       0.0  T
   2   -117.4166505 -0.123687E-07  0.300E-03    2.48       3.7  T
   3   -117.4166505  0.408102E-07  0.779E-04    2.48      14.1  T
   4   -117.4166505 -0.453703E-07  0.226E-04    2.48      48.6  T
     SCC iter.                  ...        0 min,  0.445 sec
     gradient                   ...        0 min,  0.113 sec
 * total energy  :  -115.5345915 Eh     change       -0.1094107E-06 Eh
   gradient norm :     0.0005207 Eh/α   predicted     0.3057516E-08 (-102.79%)
   displ. norm   :     0.0151248 α      lambda       -0.7925082E-06
   maximum displ.:     0.0084016 α      in ANC's #6, #2, #1, ...

........................................................................
.............................. CYCLE   50 ..............................
........................................................................

 iter      E             dE          RMSdq      gap      omega  full diag
   1   -117.4166678 -0.117417E+03  0.410E-03    2.48       0.0  T
   2   -117.4166678 -0.505509E-07  0.190E-03    2.48       5.8  T
   3   -117.4166678  0.304935E-08  0.694E-04    2.48      15.8  T
   4   -117.4166678 -0.298016E-09  0.422E-04    2.48      26.0  T
     SCC iter.                  ...        0 min,  0.595 sec
     gradient                   ...        0 min,  0.117 sec
 * total energy  :  -115.5345919 Eh     change       -0.3994110E-06 Eh
   gradient norm :     0.0003860 Eh/α   predicted    -0.3984712E-06 (  -0.24%)
   displ. norm   :     0.0160061 α      lambda       -0.8168172E-06
   maximum displ.:     0.0092895 α      in ANC's #2, #6, #1, ...

........................................................................
.............................. CYCLE   51 ..............................
........................................................................

 iter      E             dE          RMSdq      gap      omega  full diag
   1   -117.4167225 -0.117417E+03  0.354E-03    2.48       0.0  T
   2   -117.4167225 -0.192193E-07  0.177E-03    2.47       6.2  T
   3   -117.4167225  0.100686E-07  0.585E-04    2.47      18.7  T
   4   -117.4167225 -0.763829E-08  0.334E-04    2.47      32.9  T
     SCC iter.                  ...        0 min,  0.459 sec
     gradient                   ...        0 min,  0.116 sec
 * total energy  :  -115.5345927 Eh     change       -0.8357304E-06 Eh
   gradient norm :     0.0001510 Eh/α   predicted    -0.4116126E-06 ( -50.75%)
   displ. norm   :     0.0302171 α      lambda       -0.6431810E-06
   maximum displ.:     0.0175137 α      in ANC's #2, #6, #1, ...

........................................................................
.............................. CYCLE   52 ..............................
........................................................................

 iter      E             dE          RMSdq      gap      omega  full diag
   1   -117.4167433 -0.117417E+03  0.449E-03    2.47       0.0  T
   2   -117.4167433 -0.107519E-07  0.254E-03    2.47       4.3  T
   3   -117.4167433  0.178364E-07  0.575E-04    2.47      19.1  T
   4   -117.4167433 -0.161517E-07  0.283E-04    2.47      38.7  T
     SCC iter.                  ...        0 min,  0.402 sec
     gradient                   ...        0 min,  0.117 sec
 * total energy  :  -115.5345935 Eh     change       -0.7674029E-06 Eh
   gradient norm :     0.0001577 Eh/α   predicted    -0.3250728E-06 ( -57.64%)
   displ. norm   :     0.0796586 α      lambda       -0.1137043E-05
   maximum displ.:     0.0454359 α      in ANC's #2, #6, #1, ...

........................................................................
.............................. CYCLE   53 ..............................
........................................................................

 iter      E             dE          RMSdq      gap      omega  full diag
   1   -117.4167341 -0.117417E+03  0.112E-02    2.47       0.0  T
   2   -117.4167341 -0.386697E-07  0.641E-03    2.47       1.7  T
   3   -117.4167341  0.645859E-07  0.110E-03    2.47      10.0  T
   4   -117.4167341 -0.709577E-07  0.459E-04    2.47      23.9  T
   5   -117.4167341 -0.697159E-08  0.200E-04    2.47      55.0  T
     SCC iter.                  ...        0 min,  0.616 sec
     gradient                   ...        0 min,  0.118 sec
 * total energy  :  -115.5345946 Eh     change       -0.1143167E-05 Eh
   gradient norm :     0.0002788 Eh/α   predicted    -0.5720910E-06 ( -49.96%)
   displ. norm   :     0.0584577 α      lambda       -0.5993414E-06
   maximum displ.:     0.0333152 α      in ANC's #2, #6, #1, ...

........................................................................
.............................. CYCLE   54 ..............................
........................................................................

 iter      E             dE          RMSdq      gap      omega  full diag
   1   -117.4167222 -0.117417E+03  0.799E-03    2.47       0.0  T
   2   -117.4167222 -0.154001E-07  0.464E-03    2.47       2.4  T
   3   -117.4167221  0.335078E-07  0.734E-04    2.47      15.0  T
   4   -117.4167222 -0.411302E-07  0.196E-04    2.47      56.1  T
     SCC iter.                  ...        0 min,  0.446 sec
     gradient                   ...        0 min,  0.118 sec
 * total energy  :  -115.5345953 Eh     change       -0.6512404E-06 Eh
   gradient norm :     0.0001996 Eh/α   predicted    -0.3035556E-06 ( -53.39%)
   displ. norm   :     0.0446676 α      lambda       -0.5092475E-06
   maximum displ.:     0.0251802 α      in ANC's #2, #6, #1, ...

........................................................................
.............................. CYCLE   55 ..............................
........................................................................

 iter      E             dE          RMSdq      gap      omega  full diag
   1   -117.4167437 -0.117417E+03  0.610E-03    2.47       0.0  T
   2   -117.4167437 -0.946319E-08  0.355E-03    2.47       3.1  T
   3   -117.4167437  0.211443E-07  0.569E-04    2.47      19.3  T
   4   -117.4167437 -0.242773E-07  0.189E-04    2.47      58.1  T
     SCC iter.                  ...        0 min,  0.471 sec
     gradient                   ...        0 min,  0.117 sec
 * total energy  :  -115.5345959 Eh     change       -0.5727722E-06 Eh
   gradient norm :     0.0001032 Eh/α   predicted    -0.2576873E-06 ( -55.01%)
   displ. norm   :     0.0516343 α      lambda       -0.5149799E-06
   maximum displ.:     0.0293461 α      in ANC's #2, #6, #1, ...

........................................................................
.............................. CYCLE   56 ..............................
........................................................................

 iter      E             dE          RMSdq      gap      omega  full diag
   1   -117.4167505 -0.117417E+03  0.697E-03    2.47       0.0  T
   2   -117.4167505 -0.106910E-07  0.407E-03    2.47       2.7  T
   3   -117.4167504  0.532852E-07  0.816E-04    2.47      13.4  T
   4   -117.4167505 -0.577628E-07  0.236E-04    2.47      46.4  T
     SCC iter.                  ...        0 min,  0.541 sec
     gradient                   ...        0 min,  0.116 sec
 * total energy  :  -115.5345964 Eh     change       -0.5216589E-06 Eh
   gradient norm :     0.0001567 Eh/α   predicted    -0.2608587E-06 ( -49.99%)
   displ. norm   :     0.0501756 α      lambda        0.8137352E-07
   maximum displ.:     0.0284825 α      in ANC's #2, #6, #1, ...

........................................................................
.............................. CYCLE   57 ..............................
........................................................................

 iter      E             dE          RMSdq      gap      omega  full diag
   1   -117.4167400 -0.117417E+03  0.678E-03    2.47       0.0  T
   2   -117.4167400 -0.958826E-08  0.396E-03    2.47       2.8  T
   3   -117.4167400  0.421854E-07  0.733E-04    2.47      15.0  T
   4   -117.4167400 -0.454311E-07  0.231E-04    2.47      47.4  T
     SCC iter.                  ...        0 min,  0.464 sec
     gradient                   ...        0 min,  0.114 sec
 * total energy  :  -115.5345963 Eh     change        0.5251054E-07 Eh
   gradient norm :     0.0003192 Eh/α   predicted     0.4057743E-07 ( -22.73%)
   displ. norm   :     0.0265550 α      lambda       -0.3852529E-06
   maximum displ.:     0.0150476 α      in ANC's #6, #2, #1, ...

........................................................................
.............................. CYCLE   58 ..............................
........................................................................

 iter      E             dE          RMSdq      gap      omega  full diag
   1   -117.4167599 -0.117417E+03  0.382E-03    2.47       0.0  T
   2   -117.4167599 -0.575648E-08  0.222E-03    2.47       4.9  T
   3   -117.4167599  0.145770E-07  0.471E-04    2.47      23.3  T
   4   -117.4167599 -0.169401E-07  0.110E-04    2.47     100.1  T
     SCC iter.                  ...        0 min,  0.402 sec
     gradient                   ...        0 min,  0.116 sec
 * total energy  :  -115.5345967 Eh     change       -0.3996294E-06 Eh
   gradient norm :     0.0001717 Eh/α   predicted    -0.1952381E-06 ( -51.15%)
   displ. norm   :     0.0111227 α      lambda       -0.2871780E-06
   maximum displ.:     0.0060361 α      in ANC's #6, #34, #7, ...

........................................................................
.............................. CYCLE   59 ..............................
........................................................................

 iter      E             dE          RMSdq      gap      omega  full diag
   1   -117.4167594 -0.117417E+03  0.165E-03    2.47       0.0  T
   2   -117.4167594 -0.250708E-08  0.952E-04    2.47      11.5  T
   3   -117.4167594  0.454403E-08  0.305E-04    2.47      36.0  T
     SCC iter.                  ...        0 min,  0.312 sec
     gradient                   ...        0 min,  0.114 sec
 * total energy  :  -115.5345970 Eh     change       -0.3241757E-06 Eh
   gradient norm :     0.0000731 Eh/α   predicted    -0.1467432E-06 ( -54.73%)
   displ. norm   :     0.0169300 α      lambda       -0.2453289E-06
   maximum displ.:     0.0080831 α      in ANC's #34, #6, #3, ...

........................................................................
.............................. CYCLE   60 ..............................
........................................................................

 iter      E             dE          RMSdq      gap      omega  full diag
   1   -117.4167545 -0.117417E+03  0.243E-03    2.47       0.0  T
   2   -117.4167545 -0.410064E-08  0.138E-03    2.47       8.0  T
   3   -117.4167545  0.828045E-08  0.409E-04    2.47      26.9  T
   4   -117.4167545 -0.828128E-08  0.175E-04    2.47      62.6  T
     SCC iter.                  ...        0 min,  0.393 sec
     gradient                   ...        0 min,  0.116 sec
 * total energy  :  -115.5345973 Eh     change       -0.2514895E-06 Eh
   gradient norm :     0.0000993 Eh/α   predicted    -0.1262393E-06 ( -49.80%)
   displ. norm   :     0.0153001 α      lambda        0.6696250E-07
   maximum displ.:     0.0073179 α      in ANC's #34, #6, #3, ...

........................................................................
.............................. CYCLE   61 ..............................
........................................................................

 iter      E             dE          RMSdq      gap      omega  full diag
   1   -117.4167457 -0.117417E+03  0.218E-03    2.47       0.0  T
   2   -117.4167457 -0.345227E-08  0.124E-03    2.47       8.8  T
   3   -117.4167457  0.100572E-07  0.420E-04    2.47      26.1  T
   4   -117.4167457 -0.106950E-07  0.157E-04    2.47      69.8  T
     SCC iter.                  ...        0 min,  0.466 sec
     gradient                   ...        0 min,  0.120 sec
 * total energy  :  -115.5345973 Eh     change        0.4211437E-07 Eh
   gradient norm :     0.0002034 Eh/α   predicted     0.3243717E-07 ( -22.98%)
   displ. norm   :     0.0066822 α      lambda       -0.1458515E-06
   maximum displ.:     0.0029782 α      in ANC's #34, #6, #7, ...

........................................................................
.............................. CYCLE   62 ..............................
........................................................................

[...]
     3   6 C        2.928    -0.035    28.880     8.813
     4   6 C        2.918    -0.026    28.647     8.777
     5   6 C        2.921    -0.030    28.739     8.791
     6   6 C        2.951    -0.036    28.898     8.817
     7   6 C        2.977     0.025    27.442     8.593
     8  16 S        2.068    -0.052   143.191    20.140
     9  16 S        1.899    -0.076   144.198    20.211
    10  15 P        4.562     0.321   146.740    21.760
    11   7 N        2.676    -0.148    24.203     7.307
    12   6 C        3.889     0.039    19.870     6.337
    13   6 C        3.753    -0.127    22.997     6.838
    14   6 C        3.754    -0.126    22.983     6.836
    15   6 C        3.925     0.086    19.094     6.210
    16   6 C        3.760    -0.120    22.838     6.813
    17   6 C        3.775    -0.129    22.995     6.832
    18   6 C        3.760    -0.123    22.912     6.824
    19   7 N        2.682    -0.130    23.833     7.251
    20   6 C        3.873    -0.039    21.229     6.551
    21   6 C        3.198     0.053    26.295     8.358
    22   6 C        2.915    -0.048    29.199     8.861
    23   6 C        2.919    -0.031    28.768     8.796
    24   6 C        2.987     0.014    27.697     8.633
    25   6 C        2.920    -0.030    28.758     8.794
    26   6 C        2.915    -0.023    28.589     8.768
    27   6 C        2.917    -0.024    28.601     8.770
    28   6 C        2.917    -0.033    28.829     8.805
    29   6 C        2.988     0.012    27.728     8.638
    30   6 C        2.978    -0.009    28.237     8.717
    31   6 C        2.977    -0.011    28.290     8.725
    32   6 C        3.048     0.052    26.779     8.487
    33   6 C        2.916    -0.053    29.320     8.879
    34   6 C        2.918    -0.034    28.843     8.807
    35   6 C        2.986     0.012    27.742     8.640
    36   6 C        2.919    -0.031    28.770     8.796
    37   6 C        2.916    -0.022    28.563     8.764
    38   6 C        2.917    -0.022    28.564     8.764
    39   6 C        2.917    -0.032    28.792     8.799
    40   6 C        2.989     0.012    27.738     8.639
    41   7 N        2.683    -0.131    23.847     7.253
    42   6 C        3.880    -0.028    21.019     6.518
    43   1 H        0.925     0.048     2.340     2.392
    44   1 H        0.925     0.055     2.263     2.353
    45   1 H        0.925     0.057     2.234     2.337
    46   1 H        0.926     0.052     2.293     2.368
    47   1 H        0.926     0.055     2.260     2.351
    48   1 H        0.926     0.053     2.283     2.363
    49   1 H        0.926     0.046     2.370     2.408
    50   1 H        0.925     0.071     2.072     2.251
    51   1 H        0.925     0.056     2.247     2.344
    52   1 H        0.925     0.050     2.321     2.383
    53   1 H        0.925     0.064     2.157     2.297
    54   1 H        0.925     0.070     2.086     2.259
    55   1 H        0.925     0.054     2.270     2.356
    56   1 H        0.925     0.060     2.199     2.319
    57   1 H        0.925     0.041     2.438     2.442
    58   1 H        0.925     0.052     2.293     2.368
    59   1 H        0.925     0.063     2.161     2.299
    60   1 H        0.925     0.058     2.219     2.330
    61   1 H        0.925     0.057     2.236     2.338
    62   1 H        0.925     0.065     2.143     2.289
    63   1 H        0.925     0.067     2.122     2.278
    64   1 H        0.925     0.048     2.343     2.394
    65   1 H        0.925     0.056     2.248     2.344
    66   1 H        0.925     0.068     2.103     2.268
    67   1 H        0.924     0.054     2.267     2.355
    68   1 H        0.925     0.074     2.040     2.234
    69   1 H        0.926     0.044     2.401     2.423
    70   1 H        0.926     0.054     2.273     2.358
    71   1 H        0.926     0.048     2.343     2.394
    72   1 H        0.926     0.049     2.327     2.385
    73   1 H        0.926     0.046     2.372     2.408
    74   1 H        0.926     0.037     2.494     2.470
    75   1 H        0.926     0.039     2.462     2.454
    76   1 H        0.926     0.052     2.293     2.368
    77   1 H        0.926     0.047     2.353     2.399
    78   1 H        0.926     0.050     2.315     2.380
    79   1 H        0.926     0.048     2.348     2.396
    80   1 H        0.926     0.039     2.464     2.455
    81   1 H        0.925     0.062     2.178     2.308
    82   1 H        0.925     0.070     2.083     2.257
    83   1 H        0.924     0.048     2.342     2.393

 Mol. C6AA /au·bohr⁶  :      88275.673812
 Mol. C8AA /au·bohr⁸  :    2353620.012441
 Mol. α(0) /au        :        473.886371


Wiberg/Mayer (AO) data.
largest (>0.10) Wiberg bond orders for each atom

 ---------------------------------------------------------------------------
     #   Z sym  total        # sym  WBO       # sym  WBO       # sym  WBO
 ---------------------------------------------------------------------------
     1   6 C    3.995 --     2 C    1.031    44 H    0.982    43 H    0.966
                            45 H    0.964
     2   6 C    3.987 --     3 C    1.409     7 C    1.366     1 C    1.031
                             5 C    0.104
     3   6 C    3.990 --     4 C    1.443     2 C    1.409    46 H    0.966
                             6 C    0.107
     4   6 C    3.984 --     3 C    1.443     5 C    1.430    47 H    0.969
     5   6 C    3.991 --     6 C    1.440     4 C    1.430    48 H    0.968
                             2 C    0.104
     6   6 C    3.989 --     5 C    1.440     7 C    1.408    49 H    0.964
                             3 C    0.107
     7   6 C    3.949 --     6 C    1.408     2 C    1.366     8 S    0.979
     8  16 S    2.394 --     9 S    1.176     7 C    0.979
     9  16 S    2.453 --     8 S    1.176    10 P    0.962
    10  15 P    5.071 --    11 N    1.261    41 N    1.185    19 N    1.185
                             9 S    0.962
    11   7 N    3.389 --    10 P    1.261    12 C    0.934    15 C    0.908
    12   6 C    3.956 --    14 C    1.008    13 C    1.005    50 H    0.950
                            11 N    0.934
    13   6 C    3.991 --    12 C    1.005    53 H    0.980    52 H    0.980
                            51 H    0.970
    14   6 C    3.978 --    12 C    1.008    55 H    0.981    54 H    0.978
                            56 H    0.957
    15   6 C    3.950 --    17 C    1.000    16 C    0.996    18 C    0.993
                            11 N    0.908
    16   6 C    3.991 --    15 C    0.996    58 H    0.980    59 H    0.979
                            57 H    0.978
    17   6 C    3.990 --    15 C    1.000    62 H    0.976    60 H    0.975
                            61 H    0.947
    18   6 C    3.987 --    15 C    0.993    64 H    0.979    63 H    0.977
                            65 H    0.977
    19   7 N    3.386 --    10 P    1.185    20 C    0.972    21 C    0.969
    20   6 C    3.961 --    68 H    0.978    67 H    0.972    19 N    0.972
                            66 H    0.964
    21   6 C    3.951 --    30 C    1.454    22 C    1.286    19 N    0.969
    22   6 C    3.988 --    23 C    1.554    21 C    1.286    69 H    0.962
    23   6 C    3.985 --    22 C    1.554    24 C    1.275    70 H    0.966
                            30 C    0.106
    24   6 C    3.989 --    25 C    1.279    23 C    1.275    29 C    1.254
    25   6 C    3.988 --    26 C    1.556    24 C    1.279    71 H    0.967
                            28 C    0.118
    26   6 C    3.986 --    25 C    1.556    27 C    1.322    72 H    0.969
    27   6 C    3.990 --    28 C    1.553    26 C    1.322    73 H    0.970
    28   6 C    3.989 --    27 C    1.553    29 C    1.283    74 H    0.965
                            25 C    0.118
    29   6 C    3.987 --    28 C    1.283    24 C    1.254    30 C    1.233
    30   6 C    3.986 --    21 C    1.454    29 C    1.233    31 C    1.032
                            23 C    0.106
    31   6 C    3.985 --    32 C    1.448    40 C    1.233    30 C    1.032
                            34 C    0.105
    32   6 C    3.949 --    31 C    1.448    33 C    1.275    41 N    0.985
    33   6 C    3.985 --    34 C    1.557    32 C    1.275    75 H    0.964
    34   6 C    3.984 --    33 C    1.557    35 C    1.273    76 H    0.966
                            31 C    0.105
    35   6 C    3.988 --    36 C    1.280    34 C    1.273    40 C    1.254
    36   6 C    3.989 --    37 C    1.555    35 C    1.280    77 H    0.967
                            39 C    0.117
    37   6 C    3.985 --    36 C    1.555    38 C    1.323    78 H    0.969
    38   6 C    3.990 --    39 C    1.553    37 C    1.323    79 H    0.970
    39   6 C    3.989 --    38 C    1.553    40 C    1.284    80 H    0.965
                            36 C    0.117
    40   6 C    3.987 --    39 C    1.284    35 C    1.254    31 C    1.233
    41   7 N    3.415 --    10 P    1.185    32 C    0.985    42 C    0.974
    42   6 C    3.963 --    82 H    0.976    41 N    0.974    83 H    0.971
                            81 H    0.962
    43   1 H    0.997 --     1 C    0.966
    44   1 H    0.996 --     1 C    0.982
    45   1 H    0.997 --     1 C    0.964
    46   1 H    0.996 --     3 C    0.966
    47   1 H    0.996 --     4 C    0.969
    48   1 H    0.997 --     5 C    0.968
    49   1 H    0.998 --     6 C    0.964
    50   1 H    0.993 --    12 C    0.950
    51   1 H    0.997 --    13 C    0.970
    52   1 H    0.997 --    13 C    0.980
    53   1 H    0.995 --    13 C    0.980
    54   1 H    0.994 --    14 C    0.978
    55   1 H    0.997 --    14 C    0.981
    56   1 H    0.996 --    14 C    0.957
    57   1 H    0.998 --    16 C    0.978
    58   1 H    0.997 --    16 C    0.980
    59   1 H    0.995 --    16 C    0.979
    60   1 H    0.997 --    17 C    0.975
    61   1 H    0.997 --    17 C    0.947
    62   1 H    0.995 --    17 C    0.976
    63   1 H    0.994 --    18 C    0.977
    64   1 H    0.997 --    18 C    0.979
    65   1 H    0.997 --    18 C    0.977
    66   1 H    0.995 --    20 C    0.964
    67   1 H    0.997 --    20 C    0.972
    68   1 H    0.994 --    20 C    0.978
    69   1 H    0.997 --    22 C    0.962
    70   1 H    0.996 --    23 C    0.966
    71   1 H    0.997 --    25 C    0.967
    72   1 H    0.997 --    26 C    0.969
    73   1 H    0.997 --    27 C    0.970
    74   1 H    0.998 --    28 C    0.965
    75   1 H    0.997 --    33 C    0.964
    76   1 H    0.996 --    34 C    0.966
    77   1 H    0.997 --    36 C    0.967
    78   1 H    0.997 --    37 C    0.969
    79   1 H    0.997 --    38 C    0.970
    80   1 H    0.998 --    39 C    0.965
    81   1 H    0.995 --    42 C    0.962
    82   1 H    0.995 --    42 C    0.976
    83   1 H    0.997 --    42 C    0.971
 ---------------------------------------------------------------------------

Topologies differ in total number of bonds
Writing topology from bond orders to xtbtopo.mol

molecular dipole:
                 x           y           z       tot (Debye)
 q only:        0.575      -1.308      -0.649
   full:        0.658      -1.147      -0.725       3.833
molecular quadrupole (traceless):
                xx          xy          yy          xz          yz          zz
 q only:        3.410      -8.530      12.738      -5.834       7.846     -16.148
  q+dip:        0.921     -10.497       9.234      -5.899       6.328     -10.156
   full:        1.216      -7.142      12.102      -6.121       8.189     -13.318

           -------------------------------------------------
          |                Geometry Summary                 |
           -------------------------------------------------

      molecular mass/u    :      610.8355096
   center of mass at/Å    :       -0.0372028       0.2614464       0.3011842
  moments of inertia/u·Å² :        0.5254316E+04   0.6048133E+04   0.8110764E+04
rotational constants/cm⁻¹ :        0.3208340E-02   0.2787246E-02   0.2078427E-02

 * 84 selected distances

     #   Z          #   Z                                           value/Å
     2   6 C        3   6 C                                       1.3894581
     3   6 C        4   6 C                                       1.3838125
     4   6 C        5   6 C                                       1.3849711
     5   6 C        6   6 C                                       1.3824170
     2   6 C        7   6 C                                       1.3940453
     6   6 C        7   6 C                                       1.3856856
     8  16 S        9  16 S                                       2.0390790
     9  16 S       10  15 P                                       2.1520464 (max)
    10  15 P       11   7 N                                       1.6553293
    11   7 N       12   6 C                                       1.4816510
    12   6 C       13   6 C                                       1.5273173
    12   6 C       14   6 C                                       1.5236350
    15   6 C       16   6 C                                       1.5307502
    15   6 C       17   6 C                                       1.5269696
    15   6 C       18   6 C                                       1.5367721
    10  15 P       19   7 N                                       1.6677204
    19   7 N       20   6 C                                       1.4605023
    19   7 N       21   6 C                                       1.4361836
    21   6 C       22   6 C                                       1.4074720
    22   6 C       23   6 C                                       1.3643753
    23   6 C       24   6 C                                       1.4088152
    24   6 C       25   6 C                                       1.4101918
    25   6 C       26   6 C                                       1.3661771
    26   6 C       27   6 C                                       1.4027532
    27   6 C       28   6 C                                       1.3671998
    24   6 C       29   6 C                                       1.4192679
    28   6 C       29   6 C                                       1.4121303
    21   6 C       30   6 C                                       1.3771485
    29   6 C       30   6 C                                       1.4252020
    31   6 C       32   6 C                                       1.3790078
    32   6 C       33   6 C                                       1.4102940
    33   6 C       34   6 C                                       1.3642342
    34   6 C       35   6 C                                       1.4095713
    35   6 C       36   6 C                                       1.4099524
    36   6 C       37   6 C                                       1.3664963
    37   6 C       38   6 C                                       1.4029865
    38   6 C       39   6 C                                       1.3673045
    31   6 C       40   6 C                                       1.4244562
    35   6 C       40   6 C                                       1.4189831
    39   6 C       40   6 C                                       1.4113568
    10  15 P       41   7 N                                       1.6670913
    32   6 C       41   7 N                                       1.4252076
    41   7 N       42   6 C                                       1.4584096
     1   6 C       43   1 H                                       1.0894586
     1   6 C       44   1 H                                       1.0863812
     1   6 C       45   1 H                                       1.0900588
     3   6 C       46   1 H                                       1.0796381
     4   6 C       47   1 H                                       1.0786690
     5   6 C       48   1 H                                       1.0784544
     6   6 C       49   1 H                                       1.0806184
    12   6 C       50   1 H                                       1.0892286
    13   6 C       51   1 H                                       1.0848640
    13   6 C       52   1 H                                       1.0869296
    13   6 C       53   1 H                                       1.0872580
    14   6 C       54   1 H                                       1.0866474
    14   6 C       55   1 H                                       1.0868386
    14   6 C       56   1 H                                       1.0873409
    16   6 C       57   1 H                                       1.0873027
    16   6 C       58   1 H                                       1.0863546
    16   6 C       59   1 H                                       1.0866200
    17   6 C       60   1 H                                       1.0851493
    17   6 C       61   1 H                                       1.0841873
    17   6 C       62   1 H                                       1.0879593
    18   6 C       63   1 H                                       1.0866098
    18   6 C       64   1 H                                       1.0867386
    18   6 C       65   1 H                                       1.0861805
    20   6 C       66   1 H                                       1.0864546
    20   6 C       67   1 H                                       1.0925874
    20   6 C       68   1 H                                       1.0892167
    22   6 C       69   1 H                                       1.0777929 (min)
    23   6 C       70   1 H                                       1.0791054
    25   6 C       71   1 H                                       1.0797224
    26   6 C       72   1 H                                       1.0790418
    27   6 C       73   1 H                                       1.0792853
    28   6 C       74   1 H                                       1.0790541
    33   6 C       75   1 H                                       1.0780361
    34   6 C       76   1 H                                       1.0792419
    36   6 C       77   1 H                                       1.0797885
    37   6 C       78   1 H                                       1.0789878
    38   6 C       79   1 H                                       1.0792120
    39   6 C       80   1 H                                       1.0791384
    42   6 C       81   1 H                                       1.0899308
    42   6 C       82   1 H                                       1.0895573
    42   6 C       83   1 H                                       1.0926087

 * 6 distinct bonds (by element types)

   Z      Z             #   av. dist./Å        max./Å        min./Å
   1 H    6 C          41     1.0843476     1.0926087     1.0777929
   6 C    6 C          33     1.4148851     1.5367721     1.3642342
   6 C    7 N           5     1.4523908     1.4816510     1.4252076
   7 N   15 P           3     1.6633803     1.6677204     1.6553293
  15 P   16 S           1     2.1520464     2.1520464     2.1520464
  16 S   16 S           1     2.0390790     2.0390790     2.0390790


optimized geometry written to: xtbopt.xyz


           -------------------------------------------------
          | TOTAL ENERGY             -115.534597662647 Eh   |
          | GRADIENT NORM               0.000034251879 Eh/α |
          | HOMO-LUMO GAP               2.472177570636 eV   |
           -------------------------------------------------

------------------------------------------------------------------------
 * finished run on 2024/12/16 at 20:27:17.512     
------------------------------------------------------------------------
 total:
 * wall-time:     0 d,  0 h,  1 min,  2.966 sec
 *  cpu-time:     0 d,  0 h,  8 min, 17.306 sec
 * ratio c/w:     7.898 speedup
 SCF:
 * wall-time:     0 d,  0 h,  0 min,  2.461 sec
 *  cpu-time:     0 d,  0 h,  0 min, 19.516 sec
 * ratio c/w:     7.930 speedup
 ANC optimizer:
 * wall-time:     0 d,  0 h,  1 min,  0.336 sec
 *  cpu-time:     0 d,  0 h,  7 min, 56.506 sec
 * ratio c/w:     7.898 speedup

