83
 energy: -115.534597662647 gnorm: 0.000034251879 xtb: 6.7.1 (edcfbbe)
C            0.88824137068274        3.80951939924316        0.67295990700405
C            2.32454976237283        3.43474390191038        0.49468724624019
C            3.20342884192478        4.25215821327116       -0.20531187457087
C            4.53556397476860        3.91112942757271       -0.36039871017862
C            5.02204225865976        2.73885024336301        0.19389811226618
C            4.17116971968318        1.91280267390201        0.90434708585669
C            2.83544066485456        2.25668178899925        1.03738619493201
S            1.72409009939229        1.21200357531900        1.97544222180616
S            2.32716069961234       -0.66622218989668        1.45928692570801
P            0.79582772369631       -1.31240847331912        0.09225901503982
N            1.27287814487521       -2.65117943354137       -0.75640442419688
C            2.64609148107251       -3.19893157735731       -0.65872196448232
C            3.73584924954269       -2.21407757907735       -1.07727685521058
C            2.91549894130408       -3.78974937393844        0.71961659455018
C            0.41548500263797       -3.27127085215358       -1.81842152626440
C            0.93364431587330       -2.85290080577596       -3.19670784814592
C           -1.04254040046710       -2.83449219522067       -1.69585765223542
C            0.44009002183056       -4.80299126235145       -1.69637609673199
N           -0.54650132286077       -1.64802098346418        1.02328421136396
C           -0.57802816562406       -2.95330631511877        1.67773277255116
C           -0.93825954199689       -0.53246770183340        1.83856897026000
C           -0.69070478470286       -0.52911873114292        3.22409503714139
C           -1.03490238908539        0.55171785137928        3.98227705822459
C           -1.60089754663268        1.69877749278587        3.39179975826478
C           -1.90086571018951        2.84578184080511        4.15537078893068
C           -2.41874197323045        3.96283509050259        3.56339464082821
C           -2.64838133468570        3.97933476205152        2.17966431273334
C           -2.37781792505479        2.87944257800317        1.41398328509568
C           -1.86162643767449        1.70126072265950        1.99668856685373
C           -1.55658232159376        0.53805256896522        1.23177344839981
C           -1.89085886344454        0.51184605393060       -0.20287801219247
C           -0.90608893501897        0.37994771413685       -1.15916940416937
C           -1.20698296208703        0.56498523540013       -2.52450916241964
C           -2.48691105869259        0.81968904094128       -2.92205755559345
C           -3.54216527339974        0.84872391609920       -1.98798771338480
C           -4.88065132685232        1.03677191580829       -2.38930846097793
C           -5.89026830734941        1.03963915710937       -1.46845173895318
C           -5.60210173140221        0.84342166211158       -0.10947070651363
C           -4.31294919113907        0.67077438317771        0.31219248166432
C           -3.24483769660931        0.68469632698494       -0.61023449749829
N            0.42783422703633        0.06912200012819       -0.76514821469471
C            1.51450452318677        0.65148851459679       -1.54422144418315
H            0.23347011956073        2.97465634387174        0.42557739258768
H            0.63052514919385        4.65994134491861        0.04798894062958
H            0.69210610866535        4.07530057794318        1.71176658593494
H            2.83196187767281        5.17164705764755       -0.63212661065374
H            5.19655888171496        4.56388991624854       -0.90859220368276
H            6.06109229411931        2.47081255051086        0.08622004618620
H            4.54079908073068        1.00181082336369        1.35290473894472
H            2.67904378110594       -4.02032288729307       -1.37331919377183
H            3.93767915692147       -1.47965503404376       -0.30473694723680
H            3.46309431302423       -1.70140762549438       -1.99607498315042
H            4.65588873770465       -2.76454841975147       -1.25793916326840
H            3.90047083805807       -4.24862015852930        0.72800186660010
H            2.18136577348199       -4.55382340513830        0.96139582766683
H            2.89432209510240       -3.02314751499193        1.49044942010913
H            0.79656001405463       -1.78476585757633       -3.34678302700903
H            1.98578552003806       -3.09290525521287       -3.32145918544447
H            0.37672029350459       -3.37690549165709       -3.96871664067471
H           -1.52557023638281       -3.26293233635691       -0.82369365216970
H           -1.14956136639572       -1.75611207632275       -1.66261961643000
H           -1.58177431647464       -3.18291659037106       -2.57419841860881
H           -0.41774843451192       -5.20981299410334       -2.22489288108054
H            0.37382640090216       -5.11820569496058       -0.65846979477511
H            1.32761178256562       -5.24753540483343       -2.13736751374994
H           -0.41167897063049       -3.72859554116523        0.93500942228190
H            0.17800527372519       -3.06539420174916        2.45849958663595
H           -1.56581572326729       -3.08494395945389        2.11743721381841
H           -0.22235375027713       -1.37916797221818        3.69281777952787
H           -0.85242756633029        0.54699686789197        5.04583187279538
H           -1.70523956765498        2.82332640464925        5.21698576437572
H           -2.64593893757131        4.83862785839361        4.15135692331110
H           -3.04025615660880        4.87271188556034        1.71796302003103
H           -2.55185481258917        2.91345043588232        0.34959981959310
H           -0.42126542237355        0.50812527477454       -3.26042794148727
H           -2.70776039386816        0.97858824378011       -3.96644225779373
H           -5.09050409581463        1.17039106120501       -3.44004664246443
H           -6.91336226494238        1.18285987464633       -1.77986942372645
H           -6.40982397319975        0.82601243954726        0.60605709213595
H           -4.10341608618777        0.51056109868709        1.35859922219539
H            2.44799188881483        0.57280170763673       -0.98712293517379
H            1.30184027067764        1.70705257838305       -1.71063424680174
H            1.65990560057064        0.16309049876310       -2.51072002935291
