83
 energy: -115.498665066233 gnorm: 0.134394747687 xtb: 6.7.1 (edcfbbe)
C            1.04232800000000        3.76570600000000        0.82643300000000
C            2.48901500000000        3.40426500000000        0.62270600000000
C            3.27312500000000        4.22696100000000       -0.20614200000000
C            4.61578000000000        3.93694700000000       -0.44314000000000
C            5.19561700000000        2.81963600000000        0.14654100000000
C            4.42864600000000        1.98978900000000        0.96546500000000
C            3.06825500000000        2.25581800000000        1.19851100000000
S            2.12350900000000        1.16355300000000        2.26120900000000
S            2.55290800000000       -0.73163200000000        1.59206600000000
P            0.97931900000000       -1.22564400000000        0.24616600000000
N            1.28069300000000       -2.55476400000000       -0.71718700000000
C            2.65539400000000       -3.10097300000000       -0.89974600000000
C            3.72136400000000       -2.09749800000000       -1.35080600000000
C            3.11402000000000       -3.92775700000000        0.30466300000000
C            0.28372700000000       -3.24445800000000       -1.62230200000000
C            0.53021400000000       -2.81800600000000       -3.08798400000000
C           -1.21180700000000       -2.98565500000000       -1.32733500000000
C            0.38413700000000       -4.80013500000000       -1.54329000000000
N           -0.36502900000000       -1.54154500000000        1.16892800000000
C           -0.24669900000000       -2.79073600000000        1.92913000000000
C           -0.94468700000000       -0.46311000000000        1.91029000000000
C           -0.89829400000000       -0.43751200000000        3.31988000000000
C           -1.40390700000000        0.62789200000000        4.05802700000000
C           -1.94172400000000        1.73495900000000        3.41542000000000
C           -2.38188700000000        2.82966800000000        4.18170500000000
C           -2.88841200000000        3.97493100000000        3.57515600000000
C           -2.94986300000000        4.04058700000000        2.19370100000000
C           -2.52008600000000        2.95256100000000        1.42775400000000
C           -2.02436800000000        1.75015000000000        2.00185900000000
C           -1.58331800000000        0.60549700000000        1.22642500000000
C           -1.83399400000000        0.52404500000000       -0.18167900000000
C           -0.76391000000000        0.39258100000000       -1.11101300000000
C           -1.03654200000000        0.60910000000000       -2.47928800000000
C           -2.32230000000000        0.83574400000000       -2.95775900000000
C           -3.40473800000000        0.81753000000000       -2.08972900000000
C           -4.70581600000000        0.95865700000000       -2.60592600000000
C           -5.81908500000000        0.90288400000000       -1.77294000000000
C           -5.64051400000000        0.69729300000000       -0.41473300000000
C           -4.34855900000000        0.56749300000000        0.10509600000000
C           -3.18177400000000        0.64606200000000       -0.70188600000000
N            0.55353000000000        0.05539000000000       -0.69678900000000
C            1.62376800000000        0.59455300000000       -1.52625300000000
H            0.40410900000000        3.06748600000000        0.28046400000000
H            0.82662000000000        4.77461300000000        0.45418800000000
H            0.78316200000000        3.76633100000000        1.89014200000000
H            2.83730800000000        5.11067200000000       -0.67035600000000
H            5.20920100000000        4.58686300000000       -1.07981700000000
H            6.24417700000000        2.59322400000000       -0.03022100000000
H            4.90793600000000        1.12887900000000        1.42472000000000
H            2.66459200000000       -3.80756200000000       -1.73122400000000
H            4.01374900000000       -1.38345100000000       -0.58472900000000
H            3.39291100000000       -1.54705700000000       -2.23634000000000
H            4.63431000000000       -2.63299800000000       -1.64029300000000
H            4.05619300000000       -4.44004200000000        0.07599500000000
H            2.38356800000000       -4.70274500000000        0.55625700000000
H            3.28226700000000       -3.33297600000000        1.20107900000000
H            0.41603100000000       -1.74079700000000       -3.21744700000000
H            1.53006600000000       -3.08576400000000       -3.44372600000000
H           -0.18357100000000       -3.30374400000000       -3.76459100000000
H           -1.52331100000000       -3.37481500000000       -0.35543100000000
H           -1.48116700000000       -1.94247100000000       -1.39318900000000
H           -1.84799700000000       -3.48979000000000       -2.06691500000000
H           -0.42415600000000       -5.27290600000000       -2.11545900000000
H            0.28826700000000       -5.14894100000000       -0.50975500000000
H            1.30724100000000       -5.21277700000000       -1.95828200000000
H           -0.00163600000000       -3.63555200000000        1.28152900000000
H            0.54458500000000       -2.74492800000000        2.68486200000000
H           -1.19536600000000       -3.05110500000000        2.41378100000000
H           -0.42664000000000       -1.23372100000000        3.88646500000000
H           -1.32657900000000        0.59640500000000        5.14285000000000
H           -2.32292100000000        2.80241100000000        5.26787000000000
H           -3.22316200000000        4.81289900000000        4.17951500000000
H           -3.32745600000000        4.93333600000000        1.70240700000000
H           -2.56387400000000        3.06454700000000        0.34591100000000
H           -0.24765400000000        0.55860300000000       -3.22244300000000
H           -2.46624000000000        0.97279300000000       -4.02711600000000
H           -4.86268400000000        1.09897300000000       -3.67360300000000
H           -6.81809700000000        1.00593800000000       -2.18677000000000
H           -6.49717700000000        0.63288100000000        0.25046600000000
H           -4.26148000000000        0.38542700000000        1.17509600000000
H            2.58997100000000        0.54255000000000       -1.02342600000000
H            1.45734200000000        1.65149400000000       -1.76263500000000
H            1.72952500000000        0.03698700000000       -2.46102900000000
83
 energy: -115.519635894091 gnorm: 0.058197384554 xtb: 6.7.1 (edcfbbe)
C            1.04548442469807        3.75753590810459        0.82961067668157
C            2.48743894733724        3.40080846537098        0.60991633168848
C            3.27639878823286        4.21765432292528       -0.19914719051551
C            4.61095044260519        3.92907150540201       -0.43595400758550
C            5.18809253797591        2.81399341648939        0.15030971334372
C            4.42464281786939        1.99020407410525        0.96118681261176
C            3.07419730078884        2.26206309590220        1.17447096792700
S            2.09959237573703        1.16772028963425        2.20971128551599
S            2.57149674820978       -0.70830634657161        1.51057649379875
P            0.93160541166833       -1.24710978206572        0.21188763965262
N            1.27276856945610       -2.58149484599250       -0.73628365048524
C            2.65484316919124       -3.11181958516013       -0.89928837408207
C            3.71118473987564       -2.09244232013365       -1.33813375190440
C            3.11272368785898       -3.91883287491276        0.31498703978410
C            0.27150316660125       -3.26209980791339       -1.63897073609942
C            0.53533138675345       -2.81807783482831       -3.08678880026430
C           -1.20185779352900       -2.96060846604467       -1.31648351462297
C            0.39728386048480       -4.79960599730231       -1.53644735537575
N           -0.39449506658244       -1.54834900350336        1.17410340589277
C           -0.25243101116581       -2.79424508477734        1.93146014584106
C           -0.94228021523408       -0.44440282601390        1.91483941688597
C           -0.87316355552284       -0.42646178579142        3.31929470972691
C           -1.38578328953570        0.61545849073627        4.05267187169113
C           -1.93854537096718        1.73286179947759        3.41623175932961
C           -2.38235868950772        2.83190807117494        4.17685100126878
C           -2.88357866373455        3.95750411537136        3.56812172195982
C           -2.93918566778000        4.01194927807547        2.17630794406851
C           -2.52258247876804        2.93776648423530        1.41324691271671
C           -2.03034979768966        1.74697656752276        1.99789911590651
C           -1.58889344632111        0.60192468597790        1.24095838258006
C           -1.84046101615768        0.53463536503161       -0.19369363098278
C           -0.79043558716622        0.40113069257396       -1.11442834414153
C           -1.04161097233715        0.59354334654707       -2.48487748263507
C           -2.30749859582096        0.82828819174116       -2.96005864015865
C           -3.40557209852185        0.81920780076253       -2.09247900175576
C           -4.71056582917056        0.95763993603223       -2.60166581842713
C           -5.80264470217717        0.90320330717074       -1.76928245060334
C           -5.61015811873697        0.69708383070340       -0.40380435834893
C           -4.33617013595491        0.57807719387531        0.11777276252751
C           -3.18409771276448        0.65788628352326       -0.69764525546409
N            0.53244150532857        0.07554219936270       -0.70208667515766
C            1.61916402380389        0.60271086849002       -1.52346867856112
H            0.39750485942417        3.05900683046221        0.30043822367694
H            0.83705724696732        4.75994971763766        0.45382726231809
H            0.78486713102865        3.74159279749285        1.88771940089228
H            2.83784248486064        5.09591977218517       -0.65450836852855
H            5.20090464387475        4.57723181885117       -1.06966573222640
H            6.23177497922999        2.58854187122030       -0.01895623071079
H            4.88865372070369        1.12706614873241        1.42210639182976
H            2.62157124011231       -3.81623320023200       -1.73124846091466
H            3.99257633345035       -1.38311125466209       -0.56415596835207
H            3.38155238350162       -1.54872867193890       -2.22272367449554
H            4.61584684990009       -2.63445496514522       -1.62088519054250
H            4.05115948703553       -4.42257666792179        0.08030409566128
H            2.38236108191871       -4.68929851951102        0.55901759802074
H            3.27313498379400       -3.30227323122739        1.19797796629059
H            0.40960492384108       -1.74292209385045       -3.19969286331454
H            1.53390719340972       -3.08584816037964       -3.43035684409661
H           -0.17872371026626       -3.30456689683118       -3.74987217663716
H           -1.50440558536622       -3.35405439215136       -0.34910131055991
H           -1.45640632668288       -1.90862492065533       -1.37473879954603
H           -1.81677873362545       -3.47135907743133       -2.06118809937571
H           -0.41583626167460       -5.24825078444257       -2.10704718731153
H            0.29704751411566       -5.13965970871173       -0.50681733244176
H            1.32044861098307       -5.20005100334063       -1.94892403420952
H           -0.00507542857542       -3.61790135383529        1.26014818526747
H            0.53952058933993       -2.74446064880083        2.68581361952476
H           -1.19917834768771       -3.03195959276868        2.41867955436379
H           -0.42250461430657       -1.23888866660491        3.86991985930653
H           -1.32739857807159        0.58034104397623        5.13201187785123
H           -2.31848774665749        2.79679054700454        5.25632957560222
H           -3.21799098750485        4.79584680622323        4.16568799665626
H           -3.31219429592058        4.90293437560841        1.68851621236497
H           -2.56765163604059        3.03762923053793        0.33654107271206
H           -0.24058479431909        0.56062547555000       -3.20897509455852
H           -2.45240484660685        0.98097962136164       -4.02048526553509
H           -4.85742823532739        1.09528012466266       -3.66467553993200
H           -6.80039323069978        1.00558084867081       -2.17585980920682
H           -6.46479443716256        0.62788975622815        0.25585077299206
H           -4.23828727596537        0.39639598953470        1.18012107514823
H            2.57402334908258        0.53914073290980       -0.99729436601713
H            1.44327819462500        1.65489851208338       -1.75379557083783
H            1.72946218193192        0.05108576420061       -2.46146721535647
83
 energy: -115.526846709479 gnorm: 0.015793202297 xtb: 6.7.1 (edcfbbe)
C            1.04212704399094        3.74445226291573        0.83057869312056
C            2.47958514130274        3.39564905042371        0.59642300036862
C            3.27599372400426        4.21144691082963       -0.19625836516356
C            4.60708799051926        3.92140586875152       -0.42962308770947
C            5.18105892949189        2.80531238724416        0.15496400829078
C            4.41299308916561        1.97826926976226        0.95149413128570
C            3.06852867496421        2.25735966371892        1.14460707120840
S            2.06148065170217        1.15288290063566        2.14301944383516
S            2.55095754893423       -0.71148728101826        1.45640568128048
P            0.89733762320772       -1.25529293703051        0.18098583656252
N            1.27389946474965       -2.59330419913157       -0.74503437262138
C            2.65873613223421       -3.11380237344375       -0.89317742094919
C            3.70460376953141       -2.08919156980653       -1.32972318457500
C            3.11017792640295       -3.90339749376947        0.33063429406173
C            0.27188297877821       -3.26989176658227       -1.64643605026071
C            0.53427709882531       -2.82514157816570       -3.08765758588136
C           -1.18486014952585       -2.93977537515736       -1.31085576116159
C            0.38724727156726       -4.79756542282802       -1.53756334755724
N           -0.41032400869267       -1.55188120614169        1.17596774618586
C           -0.25827797253644       -2.79695857749361        1.93164929486263
C           -0.93842259791543       -0.43233113159457        1.91357519905918
C           -0.85349979935642       -0.42534333479883        3.31726868838647
C           -1.36643092696335        0.60383367714634        4.04669941280566
C           -1.92998007108151        1.72642448672547        3.41293039745142
C           -2.38001925645642        2.82940567687763        4.16676392746910
C           -2.87868847224477        3.93981073216822        3.55121868174423
C           -2.93282615129265        3.98186686656138        2.15082869139212
C           -2.52485901346823        2.91628437501119        1.39375759600598
C           -2.02695999426289        1.73835208676581        1.99270620078170
C           -1.58538536806557        0.59517930274583        1.24933603518974
C           -1.83959731566949        0.54178547141637       -0.20548373271128
C           -0.80765597659261        0.41183956333914       -1.11667313837421
C           -1.04260308160416        0.58801938994086       -2.49276277249026
C           -2.29695021089414        0.82512524998472       -2.96431792467753
C           -3.40263390522560        0.82198945623383       -2.09382483045007
C           -4.71257269009049        0.95803280188032       -2.59372850788264
C           -5.78754377211729        0.90452917284263       -1.75596526929014
C           -5.58100203833011        0.70110555131470       -0.38420256239597
C           -4.31836029695455        0.58988270492860        0.13343972897906
C           -3.17959399254173        0.66629303978106       -0.69618287977310
N            0.52053174339934        0.10964196411489       -0.69736247704344
C            1.61486629622628        0.62457816304281       -1.51711801572558
H            0.38608090667622        3.04090747756865        0.31805855159917
H            0.83526046330612        4.74266128725861        0.45508787311957
H            0.79198170732276        3.71464884844330        1.88867988888892
H            2.83743964147885        5.09130452664263       -0.64056788394956
H            5.19732731411348        4.56990716931014       -1.05754702645432
H            6.22326491952434        2.58112066075068       -0.00460897984982
H            4.86035467079195        1.11211768883535        1.41755991237374
H            2.60188186669176       -3.81693234277054       -1.72320949992594
H            3.96901786421607       -1.38886990697781       -0.54454595484160
H            3.37037938186070       -1.54608593690392       -2.20947867852358
H            4.60684330026146       -2.63226007583379       -1.60284947428260
H            4.05061783888891       -4.39757397175347        0.10198630483819
H            2.38211789222507       -4.67050230560563        0.57802750584018
H            3.25882140408871       -3.25977696807188        1.19544717399023
H            0.39979123760759       -1.75104305574317       -3.18195646373045
H            1.53527399831408       -3.08408293581619       -3.41927214127936
H           -0.17459102108273       -3.31006889427459       -3.75148047361863
H           -1.48145914942307       -3.32744526348722       -0.34294673444921
H           -1.40664794170502       -1.87730290645490       -1.35628990707914
H           -1.80677689065707       -3.43386910731911       -2.05527325375562
H           -0.42643858413708       -5.24393080168467       -2.10113903109648
H            0.29562219707602       -5.12497572257381       -0.50655057046506
H            1.30922660007206       -5.19517773692237       -1.94527237759327
H           -0.00763850940281       -3.60151693782596        1.24239903958102
H            0.53347542250010       -2.74703059356271        2.68488665884942
H           -1.20425260274729       -3.02379659726927        2.41923037004402
H           -0.39689243549009       -1.24251471883171        3.84883173260517
H           -1.32095819990546        0.57411748509206        5.12356432352065
H           -2.31040242697040        2.78552119162717        5.24282303351981
H           -3.21462677691775        4.78203214696494        4.13739040958609
H           -3.29940869637844        4.87371236849537        1.66575686261783
H           -2.57245090618722        2.99701641003855        0.31883833179029
H           -0.22966020145221        0.55564983429864       -3.19867880552355
H           -2.45215549300809        0.98462829008674       -4.01905495221271
H           -4.84978197873290        1.09091759869365       -3.65576341103419
H           -6.78753156382059        1.00306003088082       -2.15008938528914
H           -6.43515675247631        0.62506656222645        0.27089567737913
H           -4.20176559630267        0.41678273928145        1.19182268209723
H            2.55473490937434        0.55250441683626       -0.96762983872458
H            1.43009582042936        1.67263894810680       -1.74462479412821
H            1.73465933286181        0.07304429810301       -2.45375516806637
83
 energy: -115.529348158729 gnorm: 0.014685455690 xtb: 6.7.1 (edcfbbe)
C            1.03068105709206        3.72884219521172        0.82844705857247
C            2.46500886016216        3.38243089014318        0.58252823304348
C            3.27100502816959        4.20578357423611       -0.19434805880814
C            4.60322237937401        3.91208399418985       -0.42018063046130
C            5.17082861740684        2.78978011894551        0.16007627860439
C            4.39232305127828        1.95320989892861        0.93936579119912
C            3.04684320787843        2.23502877706853        1.11725999978809
S            2.01589954703263        1.13651618686252        2.10219320269486
S            2.54660247103118       -0.71710624276362        1.41843705106839
P            0.88759068285746       -1.25779075991536        0.16186901827264
N            1.27126920968129       -2.59693430464834       -0.75030486042232
C            2.65498782878469       -3.11777638746277       -0.89094063415958
C            3.69706938139745       -2.08980431396314       -1.32260931975055
C            3.10466874314035       -3.88173780137216        0.34940334033147
C            0.27049823848136       -3.26964064592986       -1.65087695787317
C            0.53709636056983       -2.82620904571264       -3.09105104794382
C           -1.17546236550523       -2.91144965219862       -1.30628808817967
C            0.37905962006518       -4.79609898359580       -1.53371329047033
N           -0.40965442163370       -1.55670210023485        1.17012944874585
C           -0.25941086938112       -2.80252531264998        1.92415947866938
C           -0.92890364087930       -0.43508594733607        1.90746279408914
C           -0.83203225081693       -0.42819768933824        3.31248572999048
C           -1.34802955115857        0.59978289779542        4.04081495663185
C           -1.91885941990017        1.71924594529998        3.40490188630958
C           -2.37377343512961        2.82489118724587        4.15276240065905
C           -2.87473479816667        3.92953391985132        3.52859194549763
C           -2.93008217449698        3.96444268284530        2.12600008283517
C           -2.52273274769201        2.89701840692795        1.37540821402756
C           -2.01800951877920        1.72784424800881        1.98635034345476
C           -1.57591631294860        0.58714612411946        1.24663347195384
C           -1.83326890966723        0.54046078511330       -0.21208457920494
C           -0.80687777548399        0.41582997738410       -1.12212348146328
C           -1.03996376619947        0.58758828843872       -2.50134720972208
C           -2.29587840775091        0.82352262936081       -2.96858011996139
C           -3.39904445424562        0.82253779049526       -2.09201198067106
C           -4.71311184061256        0.95805227168162       -2.58284440009047
C           -5.78084342737364        0.90456444853676       -1.73553514772441
C           -5.56573203344326        0.70551922290507       -0.36234789216041
C           -4.30162278078428        0.59837132923987        0.14713080154495
C           -3.17200649921653        0.66819409714151       -0.69630705437630
N            0.52212848113589        0.13126165296470       -0.69127198504502
C            1.61584897479946        0.64929135558665       -1.50770836853298
H            0.36957091827295        3.02152862613474        0.32659738176535
H            0.81789021543958        4.72653268272863        0.45676461811546
H            0.79598330444999        3.69398412180344        1.89058577900846
H            2.83818703750887        5.09413681906231       -0.62869324649910
H            5.19958556352698        4.56416375736421       -1.03846078918991
H            6.21553770966717        2.56805238995337        0.01186601680333
H            4.82858191994385        1.08164635031530        1.40527631363323
H            2.59876422992107       -3.82953989861816       -1.71280768686877
H            3.95018150426599       -1.39202281233880       -0.53202618120658
H            3.36208654806166       -1.54494349166793       -2.20021863574716
H            4.60402633058586       -2.62624975781100       -1.59012587469938
H            4.05220683780638       -4.36995410879115        0.13839225371326
H            2.38151963360689       -4.64902671696581        0.60856255469683
H            3.24064722581963       -3.21555765721807        1.19990459078460
H            0.39542479416473       -1.75271222830055       -3.18194155837529
H            1.54175785083105       -3.07840642061812       -3.41698797098729
H           -0.16557970139560       -3.31561266831501       -3.75814573605917
H           -1.47307886058522       -3.29652740993428       -0.33782357270611
H           -1.36510980056618       -1.84073480920162       -1.34027088703194
H           -1.81515867683070       -3.38097387802599       -2.05075915128492
H           -0.43887976762354       -5.24149152720981       -2.09162283738849
H            0.29105145009474       -5.11701773567537       -0.49967732924927
H            1.29904091555906       -5.19952537386952       -1.94234695860995
H           -0.00986966011931       -3.60179069267220        1.23085816890272
H            0.53235108191346       -2.75473154411640        2.67700606972250
H           -1.20615987946726       -3.02648736508167        2.41201470746179
H           -0.36447226665554       -1.24463198460002        3.83451767477902
H           -1.30455566505533        0.57720117479550        5.11820576074669
H           -2.30235008501629        2.77970739025147        5.22894906446574
H           -3.21509009429849        4.77578646483296        4.10510117470709
H           -3.29927612874019        4.85398923351777        1.63935914676294
H           -2.57443653636808        2.95988995827575        0.29914315802304
H           -0.22158570570013        0.55249815697560       -3.19992651866915
H           -2.46158138196356        0.98384643265385       -4.02209746586703
H           -4.85056392997425        1.08856136580646       -3.64546939555240
H           -6.78502625832118        1.00105947104555       -2.11784167827950
H           -6.41795705243673        0.63080680432057        0.29494009659951
H           -4.16711584445306        0.43540134303242        1.20545302004987
H            2.54826707354074        0.58206303332698       -0.94823491318284
H            1.42254250656701        1.69594659174366       -1.73436453874861
H            1.74596130495008        0.09941720368331       -2.44358704550000
83
 energy: -115.531083096060 gnorm: 0.011517037918 xtb: 6.7.1 (edcfbbe)
C            1.01309688229635        3.71174610955739        0.82530124414344
C            2.44681514373926        3.37141073293315        0.57245548112848
C            3.26194190613407        4.19971579923599       -0.19083529843317
C            4.59540450488009        3.89967619617830       -0.40696585871550
C            5.15259458821426        2.76677453222124        0.16351603849785
C            4.36329447531501        1.92321588879402        0.92601312745995
C            3.02025615756239        2.21625573131913        1.09891231121978
S            1.97216231274037        1.12446252414749        2.07322972754889
S            2.51692950380599       -0.73434424179416        1.42051224301780
P            0.88712241998509       -1.25872864233644        0.14307121665547
N            1.26985975833797       -2.59961514196853       -0.75369102958045
C            2.65309408247870       -3.12024661285431       -0.88414322784096
C            3.69112843741170       -2.09244941810884       -1.32277854804867
C            3.09764989654580       -3.85446630524789        0.37631183870675
C            0.26989111498626       -3.26574175857928       -1.65503043196442
C            0.54254564210351       -2.82846863584177       -3.09624475053256
C           -1.16718850056631       -2.88028036296003       -1.30979280428616
C            0.36131016544109       -4.79273121273189       -1.52957828600186
N           -0.39935129514053       -1.56157650093244        1.16197705201420
C           -0.25628381809949       -2.81078067034920        1.91076830010108
C           -0.91179879461658       -0.44139847289081        1.89979443851548
C           -0.80397538803057       -0.42897511198832        3.30564545270757
C           -1.32203872120176        0.60071358882056        4.03190828263677
C           -1.90164257173004        1.71383420937391        3.39231277161315
C           -2.36324239903635        2.82178670694910        4.13305553809323
C           -2.87002937996603        3.91977076316170        3.49940829463437
C           -2.92834781145744        3.94795043356175        2.09666171397980
C           -2.51616589387372        2.87758915202985        1.35361676362306
C           -2.00366463992401        1.71759566794311        1.97645509329894
C           -1.56071119609575        0.57825736990306        1.23936183382431
C           -1.82332878229078        0.53422554536594       -0.21741831657900
C           -0.79896922117048        0.41730680566854       -1.13011265068438
C           -1.03645954870458        0.58717156300599       -2.51043872025868
C           -2.29730394420222        0.81815305994174       -2.97097262200266
C           -3.39532879945153        0.81757027298298       -2.08700919986453
C           -4.71413815398573        0.95520761010104       -2.56632002806350
C           -5.77432117844206        0.90425107959884       -1.70739279886783
C           -5.55083523590693        0.71103080494008       -0.33447793219376
C           -4.28241128468114        0.60251453744749        0.16340379670214
C           -3.16251533478256        0.66362269791277       -0.69462989584438
N            0.52984581736652        0.15172139270473       -0.68432577535770
C            1.62014374610864        0.68081204530110       -1.49615415170170
H            0.34987255301356        2.99608388729615        0.33746757656736
H            0.78816219370509        4.70641281467197        0.45246556560587
H            0.79379916846142        3.67984165012929        1.89162957645877
H            2.83807865918965        5.09782492802563       -0.61553626949406
H            5.20231155313887        4.55782038320996       -1.00946840556532