      -----------------------------------------------------------      
     |                   =====================                   |     
     |                           x T B                           |     
     |                   =====================                   |     
     |                         S. Grimme                         |     
     |          Mulliken Center for Theoretical Chemistry        |     
     |                    University of Bonn                     |     
      -----------------------------------------------------------      

   * xtb version 6.7.1 (edcfbbe) compiled by 'conda@3ef47c1a292c' on 2024-11-25

   xtb is free software: you can redistribute it and/or modify it under
   the terms of the GNU Lesser General Public License as published by
   the Free Software Foundation, either version 3 of the License, or
   (at your option) any later version.
   
   xtb is distributed in the hope that it will be useful,
   but WITHOUT ANY WARRANTY; without even the implied warranty of
   MERCHANTABILITY or FITNESS FOR A PARTICULAR PURPOSE.  See the
   GNU Lesser General Public License for more details.
   
   Cite this work as:
   * C. Bannwarth, E. Caldeweyher, S. Ehlert, A. Hansen, P. Pracht,
     J. Seibert, S. Spicher, S. Grimme, WIREs Comput. Mol. Sci., 2020, 11,
     e01493. DOI: 10.1002/wcms.1493
   
   for GFN2-xTB:
   * C. Bannwarth, S. Ehlert and S. Grimme., J. Chem. Theory Comput., 2019,
     15, 1652-1671. DOI: 10.1021/acs.jctc.8b01176
   for GFN1-xTB:
   * S. Grimme, C. Bannwarth, P. Shushkov, J. Chem. Theory Comput., 2017,
     13, 1989-2009. DOI: 10.1021/acs.jctc.7b00118
   for GFN0-xTB:
   * P. Pracht, E. Caldeweyher, S. Ehlert, S. Grimme, ChemRxiv, 2019, preprint.
     DOI: 10.26434/chemrxiv.8326202.v1
   for GFN-FF:
   * S. Spicher and S. Grimme, Angew. Chem. Int. Ed., 2020, 59, 15665-15673.
     DOI: 10.1002/anie.202004239
   
   for ALPB and GBSA implicit solvation:
   * S. Ehlert, M. Stahn, S. Spicher, S. Grimme, J. Chem. Theory Comput.,
     2021, 17, 4250-4261. DOI: 10.1021/acs.jctc.1c00471
   
   for ddCOSMO and CPCM-X implicit solvation:
   * M. Stahn, S. Ehlert, S. Grimme, J. Phys. Chem. A,
     2023, XX, XXXX-XXXX. DOI: 10.1021/acs.jpca.3c04382
   
   for DFT-D4:
   * E. Caldeweyher, C. Bannwarth and S. Grimme, J. Chem. Phys., 2017,
     147, 034112. DOI: 10.1063/1.4993215
   * E. Caldeweyher, S. Ehlert, A. Hansen, H. Neugebauer, S. Spicher,
     C. Bannwarth and S. Grimme, J. Chem. Phys., 2019, 150, 154122.
     DOI: 10.1063/1.5090222
   * E. Caldeweyher, J.-M. Mewes, S. Ehlert and S. Grimme, Phys. Chem. Chem. Phys.
     2020, 22, 8499-8512. DOI: 10.1039/D0CP00502A
   
   for sTDA-xTB:
   * S. Grimme and C. Bannwarth, J. Chem. Phys., 2016, 145, 054103.
     DOI: 10.1063/1.4959605
   
   in the mass-spec context:
   * V. Asgeirsson, C. Bauer and S. Grimme, Chem. Sci., 2017, 8, 4879.
     DOI: 10.1039/c7sc00601b
   * J. Koopman and S. Grimme, ACS Omega 2019, 4, 12, 15120-15133.
     DOI: 10.1021/acsomega.9b02011
   
   for metadynamics refer to:
   * S. Grimme, J. Chem. Theory Comput., 2019, 155, 2847-2862
     DOI: 10.1021/acs.jctc.9b00143
   
   for SPH calculations refer to:
   * S. Spicher and S. Grimme, J. Chem. Theory Comput., 2021, 17, 1701-1714
     DOI: 10.1021/acs.jctc.0c01306
   
   for ONIOM refer to:
   * C. Plett, A. Katbashev, S. Ehlert, S. Grimme, M. Bursch,
     Phys. Chem. Chem. Phys., 2023, 25, 17860-17868. DOI: 10.1039/D3CP02178E
   
   for DIPRO refer to:
   * J. Kohn, N. Gildemeister, S. Grimme, D. Fazzi, A. Hansen,
     J. Chem. Phys., 2023, just accepted.
   
   for PTB refer to:
   * S. Grimme, M. Mueller, A. Hansen, J. Chem. Phys., 2023, 158, 124111.
     DOI: 10.1063/5.0137838
   
   with help from (in alphabetical order)
   P. Atkinson, C. Bannwarth, F. Bohle, G. Brandenburg, E. Caldeweyher
   M. Checinski, S. Dohm, S. Ehlert, S. Ehrlich, I. Gerasimov, C. Hölzer
   A. Katbashev, J. Kohn, J. Koopman, C. Lavigne, S. Lehtola, F. März, M. Müller,
   F. Musil, H. Neugebauer, J. Pisarek, C. Plett, P. Pracht, F. Pultar,
   J. Seibert, P. Shushkov, S. Spicher, M. Stahn, M. Steiner, T. Strunk,
   J. Stückrath, T. Rose, and J. Unsleber
   
 * started run on 2024/12/16 at 20:31:26.725     
   ID    Z sym.   atoms
    1    6 C      1, 3-9, 14-20, 22-42, 44
    2    8 O      2
    3   16 S      10, 11
    4   15 P      12
    5    7 N      13, 21, 43
    6    1 H      45-87

           -------------------------------------------------
          |                Calculation Setup                |
           -------------------------------------------------

          program call               : xtb --gfn2 --opt extreme -P 8 --charge 1 molecule.xyz
          hostname                   : node20
          coordinate file            : molecule.xyz
          omp threads                :                     8


           -------------------------------------------------
          |                 G F N 2 - x T B                 |
           -------------------------------------------------

        Reference                      10.1021/acs.jctc.8b01176
      * Hamiltonian:
        H0-scaling (s, p, d)           1.850000    2.230000    2.230000
        zeta-weighting                 0.500000
      * Dispersion:
        s8                             2.700000
        a1                             0.520000
        a2                             5.000000
        s9                             5.000000
      * Repulsion:
        kExp                           1.500000    1.000000
        rExp                           1.000000
      * Coulomb:
        alpha                          2.000000
        third order                    shell-resolved
        anisotropic                    true
        a3                             3.000000
        a5                             4.000000
        cn-shift                       1.200000
        cn-exp                         4.000000
        max-rad                        5.000000


          ...................................................
          :                      SETUP                      :
          :.................................................:
          :  # basis functions                 237          :
          :  # atomic orbitals                 234          :
          :  # shells                          134          :
          :  # electrons                       228          :
          :  max. iterations                   250          :
          :  Hamiltonian                  GFN2-xTB          :
          :  restarted?                      false          :
          :  GBSA solvation                  false          :
          :  PC potential                    false          :
          :  electronic temp.          300.0000000     K    :
          :  accuracy                    1.0000000          :
          :  -> integral cutoff          0.2500000E+02      :
          :  -> integral neglect         0.1000000E-07      :
          :  -> SCF convergence          0.1000000E-05 Eh   :
          :  -> wf. convergence          0.1000000E-03 e    :
          :  Broyden damping             0.4000000          :
          :  net charge                          1          :
          :  unpaired electrons                  0          :
          ...................................................

 iter      E             dE          RMSdq      gap      omega  full diag
   1   -124.3450024 -0.124345E+03  0.425E+00    1.75       0.0  T
   2   -124.5184422 -0.173440E+00  0.261E+00    2.16       1.0  T
   3   -124.4984969  0.199453E-01  0.130E+00    2.08       1.0  T
   4   -124.5254365 -0.269396E-01  0.617E-01    1.81       1.0  T
   5   -124.5507303 -0.252938E-01  0.262E-01    1.90       1.0  T
   6   -124.5534301 -0.269982E-02  0.140E-01    1.87       1.0  T
   7   -124.5548575 -0.142742E-02  0.493E-02    1.89       1.0  T
   8   -124.5549082 -0.506451E-04  0.259E-02    1.89       1.0  T
   9   -124.5549184 -0.102538E-04  0.121E-02    1.89       1.0  T
  10   -124.5549198 -0.141344E-05  0.716E-03    1.89       1.5  T
  11   -124.5549208 -0.908297E-06  0.393E-03    1.89       2.7  T
  12   -124.5549211 -0.315052E-06  0.231E-03    1.89       4.6  T
  13   -124.5549211 -0.160031E-07  0.134E-03    1.89       8.0  T
  14   -124.5549211 -0.560717E-07  0.506E-04    1.89      21.2  T
  15   -124.5549211 -0.162655E-08  0.247E-04    1.89      43.4  T

   *** convergence criteria satisfied after 15 iterations ***

         #    Occupation            Energy/Eh            Energy/eV
      -------------------------------------------------------------
         1        2.0000           -0.8468061             -23.0428
       ...           ...                  ...                  ...
       108        2.0000           -0.4911946             -13.3661
       109        2.0000           -0.4855443             -13.2123
       110        2.0000           -0.4807030             -13.0806
       111        2.0000           -0.4796569             -13.0521
       112        2.0000           -0.4730473             -12.8723
       113        2.0000           -0.4626998             -12.5907
       114        2.0000           -0.4488796             -12.2146 (HOMO)
       115                         -0.3794445             -10.3252 (LUMO)
       116                         -0.3659918              -9.9591
       117                         -0.3483681              -9.4796
       118                         -0.3437358              -9.3535
       119                         -0.3259373              -8.8692
       ...                                ...                  ...
       234                          1.0494183              28.5561
      -------------------------------------------------------------
                  HL-Gap            0.0694351 Eh            1.8894 eV
             Fermi-level           -0.4141621 Eh          -11.2699 eV

 SCC (total)                   0 d,  0 h,  0 min,  2.390 sec
 SCC setup                      ...        0 min,  0.000 sec (  0.014%)
 Dispersion                     ...        0 min,  0.001 sec (  0.058%)
 classical contributions        ...        0 min,  0.000 sec (  0.005%)
 integral evaluation            ...        0 min,  0.006 sec (  0.270%)
 iterations                     ...        0 min,  2.255 sec ( 94.377%)
 molecular gradient             ...        0 min,  0.121 sec (  5.073%)
 printout                       ...        0 min,  0.005 sec (  0.201%)

         :::::::::::::::::::::::::::::::::::::::::::::::::::::
         ::                     SUMMARY                     ::
         :::::::::::::::::::::::::::::::::::::::::::::::::::::
         :: total energy            -122.732662588794 Eh    ::
         :: gradient norm              0.133483536703 Eh/a0 ::
         :: HOMO-LUMO gap              1.889425075274 eV    ::
         ::.................................................::
         :: SCC energy              -124.547686625373 Eh    ::
         :: -> isotropic ES            0.091775047229 Eh    ::
         :: -> anisotropic ES          0.006626939620 Eh    ::
         :: -> anisotropic XC          0.069631918367 Eh    ::
         :: -> dispersion             -0.135065658323 Eh    ::
         :: repulsion energy           1.815024036579 Eh    ::
         :: add. restraining           0.000000000000 Eh    ::
         :: total charge               1.000000000000 e     ::
         :::::::::::::::::::::::::::::::::::::::::::::::::::::

      ----------------------------------------------------------- 
     |                   =====================                   |
     |                        A N C O P T                        |
     |                   =====================                   |
     |               Approximate Normal Coordinate               |
     |                Rational Function Optimizer                |
      ----------------------------------------------------------- 
      ----------------------------------------------------------- 
     |                   =====================                   |
     |                        A N C O P T                        |
     |                   =====================                   |
     |               Approximate Normal Coordinate               |
     |                Rational Function Optimizer                |
      ----------------------------------------------------------- 

          ...................................................
          :                      SETUP                      :
          :.................................................:
          :   optimization level           extreme          :
          :   max. optcycles                  1740          :
          :   ANC micro-cycles                  20          :
          :   degrees of freedom               255          :
          :.................................................:
          :   RF solver                   davidson          :
          :   write xtbopt.log                true          :
          :   linear?                        false          :
          :   energy convergence         0.5000000E-07 Eh   :
          :   grad. convergence          0.5000000E-04 Eh/α :
          :   maxmium RF displ.          1.0000000          :
          :   Hlow (freq-cutoff)         0.1000000E-01      :
          :   Hmax (freq-cutoff)         5.0000000          :
          :   S6 in model hess.         20.0000000          :
          ...................................................

generating ANC from exact Hessian ...
Using Lindh-Hessian (1995)
 Shifting diagonal of input Hessian by    9.9034381738013072E-003
 Lowest  eigenvalues of input Hessian
    0.000000    0.000000    0.000000    0.000000    0.000000    0.000000
    0.010000    0.010049    0.010076    0.010225    0.010263    0.010352
    0.010447    0.010512    0.010749    0.011023    0.011105    0.011272
 Highest eigenvalues
    1.968204    1.994237    1.999781    2.027590    2.065334    2.078005


........................................................................
.............................. CYCLE    1 ..............................
........................................................................

 iter      E             dE          RMSdq      gap      omega  full diag
   1   -124.5549211 -0.124555E+03  0.118E-04    1.89       0.0  T
   2   -124.5549211 -0.171042E-09  0.780E-05    1.89     137.4  T
   3   -124.5549211 -0.198824E-09  0.527E-05    1.89     203.6  T
     SCC iter.                  ...        0 min,  0.334 sec
     gradient                   ...        0 min,  0.121 sec
 * total energy  :  -122.7326626 Eh     change       -0.1684782E-08 Eh
   gradient norm :     0.1334835 Eh/α   predicted     0.0000000E+00 (-100.00%)
   displ. norm   :     0.4400669 α      lambda       -0.2997860E-01
   maximum displ.:     0.1035767 α      in ANC's #57, #43, #25, ...

........................................................................
.............................. CYCLE    2 ..............................
........................................................................

 iter      E             dE          RMSdq      gap      omega  full diag
   1   -124.6327846 -0.124633E+03  0.243E-01    2.03       0.0  T
   2   -124.6329418 -0.157176E-03  0.135E-01    2.09       1.0  T
   3   -124.6328360  0.105786E-03  0.489E-02    2.12       1.0  T
   4   -124.6329598 -0.123862E-03  0.237E-02    2.12       1.0  T
   5   -124.6329825 -0.227174E-04  0.126E-02    2.12       1.0  T
   6   -124.6329892 -0.668111E-05  0.596E-03    2.12       1.8  T
   7   -124.6329904 -0.121162E-05  0.364E-03    2.12       2.9  T
   8   -124.6329907 -0.225297E-06  0.223E-03    2.12       4.8  T
   9   -124.6329907 -0.501294E-07  0.103E-03    2.12      10.4  T
  10   -124.6329907 -0.178916E-07  0.446E-04    2.12      24.0  T
  11   -124.6329907 -0.255565E-08  0.205E-04    2.12      52.3  T
     SCC iter.                  ...        0 min,  1.478 sec
     gradient                   ...        0 min,  0.117 sec
 * total energy  :  -122.7539129 Eh     change       -0.2125029E-01 Eh
   gradient norm :     0.0580805 Eh/α   predicted    -0.1792768E-01 ( -15.64%)
   displ. norm   :     0.4583216 α      lambda       -0.1150229E-01
   maximum displ.:     0.1273611 α      in ANC's #16, #18, #57, ...

........................................................................
.............................. CYCLE    3 ..............................
........................................................................

 iter      E             dE          RMSdq      gap      omega  full diag
   1   -124.6823484 -0.124682E+03  0.171E-01    2.27       0.0  T
   2   -124.6824140 -0.655883E-04  0.949E-02    2.30       1.0  T
   3   -124.6823760  0.380180E-04  0.324E-02    2.32       1.0  T
   4   -124.6824247 -0.487002E-04  0.140E-02    2.32       1.0  T
   5   -124.6824308 -0.609885E-05  0.762E-03    2.32       1.4  T
   6   -124.6824336 -0.279016E-05  0.340E-03    2.32       3.1  T
   7   -124.6824339 -0.267893E-06  0.221E-03    2.31       4.8  T
   8   -124.6824340 -0.834933E-07  0.117E-03    2.31       9.2  T
   9   -124.6824340 -0.134550E-07  0.647E-04    2.32      16.6  T
  10   -124.6824340 -0.713312E-08  0.277E-04    2.32      38.7  T
     SCC iter.                  ...        0 min,  1.229 sec
     gradient                   ...        0 min,  0.119 sec
 * total energy  :  -122.7612526 Eh     change       -0.7339727E-02 Eh
   gradient norm :     0.0152243 Eh/α   predicted    -0.6959229E-02 (  -5.18%)
   displ. norm   :     0.4545238 α      lambda       -0.3508457E-02
   maximum displ.:     0.1703049 α      in ANC's #18, #16, #8, ...

........................................................................
.............................. CYCLE    4 ..............................
........................................................................

 iter      E             dE          RMSdq      gap      omega  full diag
   1   -124.6898744 -0.124690E+03  0.944E-02    2.39       0.0  T
   2   -124.6898974 -0.229334E-04  0.533E-02    2.39       1.0  T
   3   -124.6898907  0.666961E-05  0.183E-02    2.40       1.0  T
   4   -124.6899000 -0.931257E-05  0.729E-03    2.40       1.5  T
   5   -124.6899017 -0.175189E-05  0.352E-03    2.40       3.0  T
   6   -124.6899024 -0.640381E-06  0.158E-03    2.40       6.8  T
   7   -124.6899025 -0.106177E-06  0.730E-04    2.40      14.7  T
   8   -124.6899025 -0.166833E-07  0.404E-04    2.40      26.6  T
     SCC iter.                  ...        0 min,  1.134 sec
     gradient                   ...        0 min,  0.118 sec
 * total energy  :  -122.7639475 Eh     change       -0.2694872E-02 Eh
   gradient norm :     0.0145977 Eh/α   predicted    -0.2116709E-02 ( -21.45%)
   displ. norm   :     0.5741894 α      lambda       -0.2865004E-02
   maximum displ.:     0.2155628 α      in ANC's #18, #8, #16, ...

........................................................................
.............................. CYCLE    5 ..............................
........................................................................

 iter      E             dE          RMSdq      gap      omega  full diag
   1   -124.6921659 -0.124692E+03  0.879E-02    2.43       0.0  T
   2   -124.6921890 -0.231038E-04  0.523E-02    2.43       1.0  T
   3   -124.6921840  0.502263E-05  0.202E-02    2.43       1.0  T
   4   -124.6921931 -0.905667E-05  0.558E-03    2.43       1.9  T
   5   -124.6921936 -0.523829E-06  0.354E-03    2.43       3.0  T
   6   -124.6921942 -0.572697E-06  0.124E-03    2.43       8.6  T
   7   -124.6921942 -0.986218E-08  0.493E-04    2.43      21.7  T
   8   -124.6921942 -0.500991E-08  0.191E-04    2.43      56.0  T
     SCC iter.                  ...        0 min,  1.084 sec
     gradient                   ...        0 min,  0.122 sec
 * total energy  :  -122.7660917 Eh     change       -0.2144212E-02 Eh
   gradient norm :     0.0121514 Eh/α   predicted    -0.1904808E-02 ( -11.17%)
   displ. norm   :     0.5506556 α      lambda       -0.1789276E-02
   maximum displ.:     0.2027271 α      in ANC's #8, #7, #9, ...

........................................................................
.............................. CYCLE    6 ..............................
........................................................................

 iter      E             dE          RMSdq      gap      omega  full diag
   1   -124.6914243 -0.124691E+03  0.942E-02    2.45       0.0  T
   2   -124.6914436 -0.193479E-04  0.491E-02    2.45       1.0  T
   3   -124.6914408  0.282104E-05  0.159E-02    2.45       1.0  T
   4   -124.6914454 -0.460328E-05  0.804E-03    2.46       1.3  T
   5   -124.6914470 -0.165271E-05  0.271E-03    2.45       4.0  T
   6   -124.6914473 -0.273945E-06  0.135E-03    2.45       7.9  T
   7   -124.6914474 -0.856055E-07  0.593E-04    2.45      18.1  T
   8   -124.6914474 -0.954229E-08  0.316E-04    2.45      33.9  T
     SCC iter.                  ...        0 min,  0.971 sec
     gradient                   ...        0 min,  0.117 sec
 * total energy  :  -122.7673957 Eh     change       -0.1303986E-02 Eh
   gradient norm :     0.0083523 Eh/α   predicted    -0.1165917E-02 ( -10.59%)
   displ. norm   :     0.5125396 α      lambda       -0.1196929E-02
   maximum displ.:     0.1996599 α      in ANC's #7, #8, #9, ...

........................................................................
.............................. CYCLE    7 ..............................
........................................................................

 iter      E             dE          RMSdq      gap      omega  full diag
   1   -124.6941666 -0.124694E+03  0.662E-02    2.46       0.0  T
   2   -124.6941739 -0.732760E-05  0.374E-02    2.45       1.0  T
   3   -124.6941699  0.403944E-05  0.125E-02    2.45       1.0  T
   4   -124.6941756 -0.573132E-05  0.355E-03    2.45       3.0  T
   5   -124.6941758 -0.205793E-06  0.183E-03    2.45       5.9  T
   6   -124.6941759 -0.745877E-07  0.945E-04    2.45      11.3  T
   7   -124.6941759 -0.224707E-07  0.563E-04    2.45      19.1  T
     SCC iter.                  ...        0 min,  1.024 sec
     gradient                   ...        0 min,  0.117 sec
 * total energy  :  -122.7682160 Eh     change       -0.8203287E-03 Eh
   gradient norm :     0.0079336 Eh/α   predicted    -0.7556884E-03 (  -7.88%)
   displ. norm   :     0.4360916 α      lambda       -0.7805903E-03
   maximum displ.:     0.1744182 α      in ANC's #7, #6, #9, ...

........................................................................
.............................. CYCLE    8 ..............................
........................................................................

 iter      E             dE          RMSdq      gap      omega  full diag
   1   -124.6961987 -0.124696E+03  0.747E-02    2.47       0.0  T
   2   -124.6962088 -0.101614E-04  0.358E-02    2.47       1.0  T
   3   -124.6962074  0.143158E-05  0.128E-02    2.47       1.0  T
   4   -124.6962096 -0.223286E-05  0.590E-03    2.47       1.8  T
   5   -124.6962105 -0.903222E-06  0.229E-03    2.47       4.7  T
   6   -124.6962108 -0.238238E-06  0.105E-03    2.47      10.2  T
   7   -124.6962109 -0.685932E-07  0.454E-04    2.47      23.6  T
   8   -124.6962109 -0.641502E-08  0.223E-04    2.47      48.1  T
     SCC iter.                  ...        0 min,  0.948 sec
     gradient                   ...        0 min,  0.117 sec
 * total energy  :  -122.7687447 Eh     change       -0.5287081E-03 Eh
   gradient norm :     0.0075351 Eh/α   predicted    -0.4645370E-03 ( -12.14%)
   displ. norm   :     0.3527854 α      lambda       -0.4949276E-03
   maximum displ.:     0.1480073 α      in ANC's #5, #7, #6, ...

........................................................................
.............................. CYCLE    9 ..............................
........................................................................

 iter      E             dE          RMSdq      gap      omega  full diag
   1   -124.6981822 -0.124698E+03  0.520E-02    2.47       0.0  T
   2   -124.6981869 -0.471247E-05  0.273E-02    2.47       1.0  T
   3   -124.6981858  0.107563E-05  0.887E-03    2.47       1.2  T
   4   -124.6981874 -0.157206E-05  0.399E-03    2.47       2.7  T
   5   -124.6981877 -0.312903E-06  0.187E-03    2.47       5.7  T
   6   -124.6981879 -0.155303E-06  0.854E-04    2.47      12.6  T
   7   -124.6981879 -0.740560E-08  0.613E-04    2.47      17.5  T
     SCC iter.                  ...        0 min,  0.789 sec
     gradient                   ...        0 min,  0.121 sec
 * total energy  :  -122.7690951 Eh     change       -0.3503850E-03 Eh
   gradient norm :     0.0057005 Eh/α   predicted    -0.2782692E-03 ( -20.58%)
   displ. norm   :     0.3214801 α      lambda       -0.3700051E-03
   maximum displ.:     0.1566940 α      in ANC's #5, #6, #7, ...

........................................................................
.............................. CYCLE   10 ..............................
........................................................................

 iter      E             dE          RMSdq      gap      omega  full diag
   1   -124.7000373 -0.124700E+03  0.426E-02    2.48       0.0  T
   2   -124.7000404 -0.303411E-05  0.243E-02    2.48       1.0  T
   3   -124.7000376  0.276412E-05  0.914E-03    2.48       1.2  T
   4   -124.7000412 -0.358042E-05  0.273E-03    2.48       3.9  T
   5   -124.7000413 -0.115038E-06  0.128E-03    2.48       8.4  T
   6   -124.7000414 -0.843563E-07  0.554E-04    2.48      19.4  T
   7   -124.7000414 -0.142535E-07  0.297E-04    2.48      36.1  T
     SCC iter.                  ...        0 min,  0.805 sec
     gradient                   ...        0 min,  0.120 sec
 * total energy  :  -122.7693481 Eh     change       -0.2530136E-03 Eh
   gradient norm :     0.0043980 Eh/α   predicted    -0.2041230E-03 ( -19.32%)
   displ. norm   :     0.2650670 α      lambda       -0.2368044E-03
   maximum displ.:     0.1474249 α      in ANC's #5, #6, #9, ...

........................................................................
.............................. CYCLE   11 ..............................
........................................................................

 iter      E             dE          RMSdq      gap      omega  full diag
   1   -124.6995177 -0.124700E+03  0.425E-02    2.47       0.0  T
   2   -124.6995199 -0.214662E-05  0.229E-02    2.47       1.0  T
   3   -124.6995195  0.397743E-06  0.577E-03    2.47       1.9  T
   4   -124.6995201 -0.634412E-06  0.267E-03    2.47       4.0  T
   5   -124.6995203 -0.198720E-06  0.935E-04    2.47      11.5  T
   6   -124.6995203 -0.208881E-07  0.522E-04    2.47      20.6  T
     SCC iter.                  ...        0 min,  0.779 sec
     gradient                   ...        0 min,  0.120 sec
 * total energy  :  -122.7695207 Eh     change       -0.1726088E-03 Eh
   gradient norm :     0.0044090 Eh/α   predicted    -0.1267215E-03 ( -26.58%)
   displ. norm   :     0.2459717 α      lambda       -0.1883892E-03
   maximum displ.:     0.1464337 α      in ANC's #5, #6, #17, ...

........................................................................
.............................. CYCLE   12 ..............................
........................................................................

 iter      E             dE          RMSdq      gap      omega  full diag
   1   -124.6988928 -0.124699E+03  0.407E-02    2.46       0.0  T
   2   -124.6988936 -0.859779E-06  0.237E-02    2.46       1.0  T
   3   -124.6988927  0.896913E-06  0.450E-03    2.47       2.4  T
   4   -124.6988937 -0.947156E-06  0.208E-03    2.47       5.1  T
   5   -124.6988939 -0.178126E-06  0.108E-03    2.47       9.9  T
   6   -124.6988939 -0.693050E-07  0.476E-04    2.47      22.5  T
   7   -124.6988939 -0.687102E-08  0.260E-04    2.47      41.3  T
     SCC iter.                  ...        0 min,  1.030 sec
     gradient                   ...        0 min,  0.126 sec
 * total energy  :  -122.7696642 Eh     change       -0.1434999E-03 Eh
   gradient norm :     0.0041979 Eh/α   predicted    -0.9989453E-04 ( -30.39%)
   displ. norm   :     0.2482591 α      lambda       -0.1615646E-03
   maximum displ.:     0.1541663 α      in ANC's #5, #6, #17, ...

........................................................................
.............................. CYCLE   13 ..............................
........................................................................

 iter      E             dE          RMSdq      gap      omega  full diag
   1   -124.6982184 -0.124698E+03  0.436E-02    2.46       0.0  T
   2   -124.6982193 -0.906658E-06  0.254E-02    2.46       1.0  T
   3   -124.6982185  0.831738E-06  0.470E-03    2.46       2.3  T
   4   -124.6982194 -0.946708E-06  0.197E-03    2.46       5.4  T
   5   -124.6982196 -0.112089E-06  0.106E-03    2.46      10.1  T
   6   -124.6982196 -0.754346E-07  0.472E-04    2.46      22.7  T
   7   -124.6982196 -0.704645E-08  0.286E-04    2.46      37.5  T
     SCC iter.                  ...        0 min,  0.897 sec
     gradient                   ...        0 min,  0.121 sec
 * total energy  :  -122.7697874 Eh     change       -0.1231359E-03 Eh
   gradient norm :     0.0033396 Eh/α   predicted    -0.8576363E-04 ( -30.35%)
   displ. norm   :     0.2421392 α      lambda       -0.1326238E-03
   maximum displ.:     0.1538058 α      in ANC's #5, #6, #12, ...

........................................................................
.............................. CYCLE   14 ..............................
........................................................................

 iter      E             dE          RMSdq      gap      omega  full diag
   1   -124.6982261 -0.124698E+03  0.404E-02    2.46       0.0  T
   2   -124.6982268 -0.726100E-06  0.235E-02    2.47       1.0  T
   3   -124.6982258  0.980455E-06  0.478E-03    2.46       2.2  T
   4   -124.6982270 -0.115967E-05  0.165E-03    2.47       6.5  T
   5   -124.6982270 -0.530930E-07  0.860E-04    2.47      12.5  T
   6   -124.6982271 -0.478454E-07  0.393E-04    2.46      27.3  T
     SCC iter.                  ...        0 min,  0.821 sec
     gradient                   ...        0 min,  0.116 sec
 * total energy  :  -122.7698921 Eh     change       -0.1047508E-03 Eh
   gradient norm :     0.0031402 Eh/α   predicted    -0.7020373E-04 ( -32.98%)
   displ. norm   :     0.2589323 α      lambda       -0.1295231E-03
   maximum displ.:     0.1654129 α      in ANC's #5, #12, #6, ...

........................................................................
.............................. CYCLE   15 ..............................
........................................................................

 iter      E             dE          RMSdq      gap      omega  full diag
   1   -124.6987443 -0.124699E+03  0.395E-02    2.47       0.0  T
   2   -124.6987449 -0.611900E-06  0.229E-02    2.47       1.0  T
   3   -124.6987439  0.984389E-06  0.459E-03    2.47       2.3  T
   4   -124.6987451 -0.117177E-05  0.154E-03    2.47       7.0  T
   5   -124.6987451 -0.462534E-07  0.712E-04    2.47      15.1  T
   6   -124.6987452 -0.317983E-07  0.348E-04    2.47      30.8  T
     SCC iter.                  ...        0 min,  1.017 sec
     gradient                   ...        0 min,  0.121 sec
 * total energy  :  -122.7699967 Eh     change       -0.1045797E-03 Eh
   gradient norm :     0.0035526 Eh/α   predicted    -0.6910486E-04 ( -33.92%)
   displ. norm   :     0.2844535 α      lambda       -0.1287326E-03
   maximum displ.:     0.1826039 α      in ANC's #5, #12, #8, ...

........................................................................
.............................. CYCLE   16 ..............................
........................................................................

 iter      E             dE          RMSdq      gap      omega  full diag
   1   -124.6993304 -0.124699E+03  0.398E-02    2.48       0.0  T
   2   -124.6993310 -0.598470E-06  0.230E-02    2.48       1.0  T
   3   -124.6993300  0.101473E-05  0.456E-03    2.48       2.4  T
   4   -124.6993313 -0.122811E-05  0.143E-03    2.48       7.5  T
   5   -124.6993313 -0.466052E-07  0.510E-04    2.48      21.0  T
   6   -124.6993313 -0.108990E-07  0.277E-04    2.48      38.6  T
     SCC iter.                  ...        0 min,  0.719 sec
     gradient                   ...        0 min,  0.122 sec
 * total energy  :  -122.7700995 Eh     change       -0.1028441E-03 Eh
   gradient norm :     0.0036057 Eh/α   predicted    -0.6957578E-04 ( -32.35%)
   displ. norm   :     0.2819532 α      lambda       -0.1087900E-03
   maximum displ.:     0.1841210 α      in ANC's #5, #12, #8, ...

........................................................................
.............................. CYCLE   17 ..............................
........................................................................

 iter      E             dE          RMSdq      gap      omega  full diag
   1   -124.6997221 -0.124700E+03  0.374E-02    2.49       0.0  T
   2   -124.6997227 -0.624058E-06  0.216E-02    2.49       1.0  T
   3   -124.6997218  0.921048E-06  0.453E-03    2.49       2.4  T
   4   -124.6997229 -0.112145E-05  0.142E-03    2.49       7.5  T
   5   -124.6997230 -0.491386E-07  0.449E-04    2.49      23.9  T
   6   -124.6997230 -0.825827E-08  0.209E-04    2.49      51.2  T
     SCC iter.                  ...        0 min,  0.664 sec
     gradient                   ...        0 min,  0.117 sec
 * total energy  :  -122.7701848 Eh     change       -0.8528389E-04 Eh
   gradient norm :     0.0029496 Eh/α   predicted    -0.5872216E-04 ( -31.15%)
   displ. norm   :     0.2472361 α      lambda       -0.7903553E-04
   maximum displ.:     0.1650405 α      in ANC's #5, #3, #8, ...

........................................................................
.............................. CYCLE   18 ..............................
........................................................................

 iter      E             dE          RMSdq      gap      omega  full diag
   1   -124.6998441 -0.124700E+03  0.318E-02    2.49       0.0  T
   2   -124.6998447 -0.521285E-06  0.182E-02    2.49       1.0  T
   3   -124.6998441  0.576657E-06  0.401E-03    2.49       2.7  T
   4   -124.6998448 -0.713169E-06  0.140E-03    2.49       7.7  T
   5   -124.6998448 -0.465288E-07  0.414E-04    2.49      25.9  T
   6   -124.6998449 -0.850815E-08  0.173E-04    2.49      61.9  T
     SCC iter.                  ...        0 min,  0.678 sec
     gradient                   ...        0 min,  0.117 sec
 * total energy  :  -122.7702470 Eh     change       -0.6223144E-04 Eh
   gradient norm :     0.0022455 Eh/α   predicted    -0.4193757E-04 ( -32.61%)
   displ. norm   :     0.2107972 α      lambda       -0.5961605E-04
   maximum displ.:     0.1435973 α      in ANC's #5, #3, #8, ...

........................................................................
.............................. CYCLE   19 ..............................
........................................................................

 iter      E             dE          RMSdq      gap      omega  full diag
   1   -124.7000305 -0.124700E+03  0.273E-02    2.50       0.0  T
   2   -124.7000309 -0.438485E-06  0.153E-02    2.50       1.0  T
   3   -124.7000307  0.258363E-06  0.338E-03    2.50       3.2  T
   4   -124.7000310 -0.317727E-06  0.151E-03    2.50       7.1  T
   5   -124.7000310 -0.614019E-07  0.443E-04    2.50      24.2  T
   6   -124.7000311 -0.125115E-07  0.203E-04    2.50      52.8  T
     SCC iter.                  ...        0 min,  0.824 sec
     gradient                   ...        0 min,  0.117 sec
 * total energy  :  -122.7702946 Eh     change       -0.4759982E-04 Eh
   gradient norm :     0.0019727 Eh/α   predicted    -0.3113680E-04 ( -34.59%)
   displ. norm   :     0.2972200 α      lambda       -0.5065379E-04
   maximum displ.:     0.2029178 α      in ANC's #5, #3, #2, ...

........................................................................
.............................. CYCLE   20 ..............................
........................................................................

 iter      E             dE          RMSdq      gap      omega  full diag
   1   -124.6995452 -0.124700E+03  0.386E-02    2.50       0.0  T
   2   -124.6995461 -0.859822E-06  0.213E-02    2.50       1.0  T
   3   -124.6995458  0.262529E-06  0.451E-03    2.50       2.4  T
   4   -124.6995460 -0.202543E-06  0.246E-03    2.50       4.4  T
   5   -124.6995463 -0.241403E-06  0.775E-04    2.50      13.8  T
   6   -124.6995463 -0.517815E-07  0.330E-04    2.50      32.5  T
     SCC iter.                  ...        0 min,  0.721 sec
     gradient                   ...        0 min,  0.122 sec
 * total energy  :  -122.7703473 Eh     change       -0.5261284E-04 Eh
   gradient norm :     0.0025069 Eh/α   predicted    -0.2632322E-04 ( -49.97%)
   displ. norm   :     0.1346549 α      lambda       -0.3649185E-04
   maximum displ.:     0.0912273 α      in ANC's #5, #3, #2, ...
 * RMSD in coord.:     0.5052417 α      energy gain  -0.3768467E-01 Eh

generating ANC from exact Hessian ...
Using Lindh-Hessian (1995)
 Shifting diagonal of input Hessian by    9.9291378926081308E-003
 Lowest  eigenvalues of input Hessian
    0.000000    0.000000    0.000000    0.000000    0.000000    0.000000
    0.010000    0.010027    0.010100    0.010160    0.010309    0.010419
    0.010561    0.010592    0.010786    0.010935    0.010970    0.011294
 Highest eigenvalues
    2.018886    2.028033    2.073273    2.098218    2.115313    2.126442


........................................................................
.............................. CYCLE   21 ..............................
........................................................................

 iter      E             dE          RMSdq      gap      omega  full diag
   1   -124.7005151 -0.124701E+03  0.198E-02    2.50       0.0  T
   2   -124.7005155 -0.383472E-06  0.107E-02    2.50       1.0  T
   3   -124.7005154  0.666080E-07  0.244E-03    2.50       4.4  T
   4   -124.7005154  0.238979E-07  0.150E-03    2.50       7.1  T
   5   -124.7005155 -0.148661E-06  0.470E-04    2.50      22.8  T
   6   -124.7005155 -0.135188E-07  0.242E-04    2.50      44.4  T
     SCC iter.                  ...        0 min,  0.732 sec
     gradient                   ...        0 min,  0.121 sec
 * total energy  :  -122.7703723 Eh     change       -0.2509038E-04 Eh
   gradient norm :     0.0024904 Eh/α   predicted     0.0000000E+00 (-100.00%)
   displ. norm   :     0.0320073 α      lambda       -0.2066356E-04
   maximum displ.:     0.0124570 α      in ANC's #3, #13, #7, ...

........................................................................
.............................. CYCLE   22 ..............................
........................................................................

 iter      E             dE          RMSdq      gap      omega  full diag
   1   -124.7001439 -0.124700E+03  0.627E-03    2.50       0.0  T
   2   -124.7001440 -0.936839E-07  0.359E-03    2.50       3.0  T
   3   -124.7001439  0.514913E-07  0.124E-03    2.50       8.6  T
   4   -124.7001440 -0.650474E-07  0.407E-04    2.50      26.4  T
   5   -124.7001440 -0.423303E-08  0.204E-04    2.50      52.6  T
     SCC iter.                  ...        0 min,  0.636 sec
     gradient                   ...        0 min,  0.120 sec
 * total energy  :  -122.7703899 Eh     change       -0.1752072E-04 Eh
   gradient norm :     0.0011838 Eh/α   predicted    -0.1069861E-04 ( -38.94%)
   displ. norm   :     0.1510447 α      lambda       -0.4041093E-04
   maximum displ.:     0.0611582 α      in ANC's #3, #13, #7, ...

........................................................................
.............................. CYCLE   23 ..............................
........................................................................

 iter      E             dE          RMSdq      gap      omega  full diag
   1   -124.6993365 -0.124699E+03  0.243E-02    2.50       0.0  T
   2   -124.6993373 -0.745199E-06  0.141E-02    2.50       1.0  T
   3   -124.6993366  0.653617E-06  0.412E-03    2.50       2.6  T
   4   -124.6993375 -0.826888E-06  0.112E-03    2.50       9.6  T
   5   -124.6993375 -0.143318E-07  0.541E-04    2.50      19.8  T
   6   -124.6993375 -0.144998E-07  0.288E-04    2.50      37.3  T
     SCC iter.                  ...        0 min,  0.764 sec
     gradient                   ...        0 min,  0.117 sec
 * total energy  :  -122.7704203 Eh     change       -0.3046319E-04 Eh
   gradient norm :     0.0028616 Eh/α   predicted    -0.2041064E-04 ( -33.00%)
   displ. norm   :     0.0459095 α      lambda       -0.1452007E-04
   maximum displ.:     0.0214650 α      in ANC's #3, #4, #7, ...

........................................................................
.............................. CYCLE   24 ..............................
........................................................................

 iter      E             dE          RMSdq      gap      omega  full diag
   1   -124.6996355 -0.124700E+03  0.647E-03    2.50       0.0  T
   2   -124.6996356 -0.249365E-07  0.378E-03    2.50       2.8  T
   3   -124.6996356  0.811141E-08  0.570E-04    2.50      18.8  T
   4   -124.6996356 -0.123766E-07  0.220E-04    2.50      48.7  T
     SCC iter.                  ...        0 min,  0.541 sec
     gradient                   ...        0 min,  0.117 sec
 * total energy  :  -122.7704339 Eh     change       -0.1358390E-04 Eh
   gradient norm :     0.0023493 Eh/α   predicted    -0.7498663E-05 ( -44.80%)
   displ. norm   :     0.1918352 α      lambda       -0.5467458E-04
   maximum displ.:     0.0908913 α      in ANC's #3, #4, #7, ...

........................................................................
.............................. CYCLE   25 ..............................
........................................................................

 iter      E             dE          RMSdq      gap      omega  full diag
   1   -124.7004211 -0.124700E+03  0.266E-02    2.50       0.0  T
   2   -124.7004215 -0.434911E-06  0.153E-02    2.50       1.0  T
   3   -124.7004212  0.322541E-06  0.301E-03    2.50       3.6  T
   4   -124.7004216 -0.384856E-06  0.120E-03    2.50       8.9  T
   5   -124.7004217 -0.468088E-07  0.331E-04    2.50      32.4  T
   6   -124.7004217 -0.320013E-08  0.192E-04    2.50      55.7  T
     SCC iter.                  ...        0 min,  0.780 sec
     gradient                   ...        0 min,  0.127 sec
 * total energy  :  -122.7704697 Eh     change       -0.3575138E-04 Eh
   gradient norm :     0.0012822 Eh/α   predicted    -0.2834342E-04 ( -20.72%)
   displ. norm   :     0.2147203 α      lambda       -0.2213458E-04
   maximum displ.:     0.1068399 α      in ANC's #3, #4, #7, ...

........................................................................
.............................. CYCLE   26 ..............................
........................................................................

 iter      E             dE          RMSdq      gap      omega  full diag
   1   -124.7004429 -0.124700E+03  0.315E-02    2.50       0.0  T
   2   -124.7004435 -0.602999E-06  0.175E-02    2.50       1.0  T
   3   -124.7004433  0.151013E-06  0.365E-03    2.50       2.9  T
   4   -124.7004435 -0.173681E-06  0.173E-03    2.50       6.2  T
   5   -124.7004436 -0.831127E-07  0.787E-04    2.50      13.6  T
   6   -124.7004436 -0.308225E-07  0.406E-04    2.50      26.4  T
     SCC iter.                  ...        0 min,  0.914 sec
     gradient                   ...        0 min,  0.121 sec
 * total energy  :  -122.7704848 Eh     change       -0.1517833E-04 Eh
   gradient norm :     0.0018799 Eh/α   predicted    -0.1129447E-04 ( -25.59%)
   displ. norm   :     0.1143959 α      lambda       -0.1677304E-04
   maximum displ.:     0.0619104 α      in ANC's #3, #4, #1, ...

........................................................................
.............................. CYCLE   27 ..............................
........................................................................

 iter      E             dE          RMSdq      gap      omega  full diag
   1   -124.7005338 -0.124701E+03  0.174E-02    2.50       0.0  T
   2   -124.7005343 -0.504250E-06  0.921E-03    2.50       1.2  T
   3   -124.7005342  0.164310E-06  0.286E-03    2.50       3.8  T
   4   -124.7005342 -0.873436E-07  0.151E-03    2.50       7.1  T
   5   -124.7005344 -0.148179E-06  0.514E-04    2.50      20.9  T
   6   -124.7005344 -0.995504E-08  0.270E-04    2.50      39.7  T
     SCC iter.                  ...        0 min,  0.649 sec
     gradient                   ...        0 min,  0.117 sec
 * total energy  :  -122.7704996 Eh     change       -0.1479318E-04 Eh
   gradient norm :     0.0013627 Eh/α   predicted    -0.8437420E-05 ( -42.96%)
   displ. norm   :     0.0907297 α      lambda       -0.1802858E-04
   maximum displ.:     0.0514974 α      in ANC's #3, #1, #4, ...

........................................................................
.............................. CYCLE   28 ..............................
........................................................................

 iter      E             dE          RMSdq      gap      omega  full diag
   1   -124.7006438 -0.124701E+03  0.160E-02    2.51       0.0  T
   2   -124.7006443 -0.507162E-06  0.812E-03    2.51       1.3  T
   3   -124.7006441  0.252761E-06  0.303E-03    2.51       3.5  T
   4   -124.7006443 -0.251485E-06  0.150E-03    2.51       7.2  T
   5   -124.7006444 -0.933373E-07  0.705E-04    2.51      15.2  T
   6   -124.7006445 -0.349976E-07  0.220E-04    2.51      48.7  T
     SCC iter.                  ...        0 min,  0.732 sec
     gradient                   ...        0 min,  0.117 sec
 * total energy  :  -122.7705148 Eh     change       -0.1514955E-04 Eh
   gradient norm :     0.0012487 Eh/α   predicted    -0.9047719E-05 ( -40.28%)
   displ. norm   :     0.1176717 α      lambda       -0.1722023E-04
   maximum displ.:     0.0623411 α      in ANC's #3, #4, #1, ...

........................................................................
.............................. CYCLE   29 ..............................
........................................................................

 iter      E             dE          RMSdq      gap      omega  full diag
   1   -124.7004514 -0.124700E+03  0.251E-02    2.51       0.0  T
   2   -124.7004523 -0.860547E-06  0.120E-02    2.51       1.0  T
   3   -124.7004522  0.148812E-06  0.359E-03    2.51       3.0  T
   4   -124.7004524 -0.236580E-06  0.193E-03    2.51       5.5  T
   5   -124.7004525 -0.677517E-07  0.704E-04    2.51      15.2  T
   6   -124.7004525 -0.333097E-07  0.275E-04    2.51      38.9  T
     SCC iter.                  ...        0 min,  0.854 sec
     gradient                   ...        0 min,  0.120 sec
 * total energy  :  -122.7705301 Eh     change       -0.1526790E-04 Eh
   gradient norm :     0.0018165 Eh/α   predicted    -0.8667864E-05 ( -43.23%)
   displ. norm   :     0.1342368 α      lambda       -0.1323448E-04
   maximum displ.:     0.0788421 α      in ANC's #3, #4, #1, ...

........................................................................
.............................. CYCLE   30 ..............................
........................................................................

 iter      E             dE          RMSdq      gap      omega  full diag
   1   -124.6999807 -0.124700E+03  0.172E-02    2.51       0.0  T
   2   -124.6999809 -0.228272E-06  0.921E-03    2.51       1.2  T
   3   -124.6999808  0.139101E-06  0.239E-03    2.51       4.5  T
   4   -124.6999808 -0.640870E-07  0.144E-03    2.51       7.4  T
   5   -124.6999810 -0.123705E-06  0.444E-04    2.51      24.2  T
   6   -124.6999810 -0.140968E-07  0.188E-04    2.51      57.0  T
     SCC iter.                  ...        0 min,  0.836 sec
     gradient                   ...        0 min,  0.123 sec
 * total energy  :  -122.7705458 Eh     change       -0.1571205E-04 Eh
   gradient norm :     0.0011516 Eh/α   predicted    -0.6678742E-05 ( -57.49%)
   displ. norm   :     0.1710573 α      lambda       -0.1514390E-04
   maximum displ.:     0.1001006 α      in ANC's #3, #4, #1, ...

........................................................................
.............................. CYCLE   31 ..............................
........................................................................

 iter      E             dE          RMSdq      gap      omega  full diag
   1   -124.7003579 -0.124700E+03  0.213E-02    2.51       0.0  T
   2   -124.7003583 -0.370547E-06  0.113E-02    2.51       1.0  T
   3   -124.7003582  0.153899E-06  0.298E-03    2.51       3.6  T
   4   -124.7003583 -0.145716E-06  0.158E-03    2.51       6.8  T
   5   -124.7003584 -0.903142E-07  0.493E-04    2.51      21.8  T
   6   -124.7003584 -0.170806E-07  0.211E-04    2.51      50.8  T
     SCC iter.                  ...        0 min,  0.793 sec
     gradient                   ...        0 min,  0.117 sec
 * total energy  :  -122.7705633 Eh     change       -0.1752301E-04 Eh
   gradient norm :     0.0006139 Eh/α   predicted    -0.7672299E-05 ( -56.22%)
   displ. norm   :     0.2080181 α      lambda       -0.1395354E-04
   maximum displ.:     0.1212429 α      in ANC's #3, #4, #1, ...

........................................................................
.............................. CYCLE   32 ..............................
........................................................................

 iter      E             dE          RMSdq      gap      omega  full diag
   1   -124.7003872 -0.124700E+03  0.237E-02    2.51       0.0  T
   2   -124.7003876 -0.390623E-06  0.129E-02    2.51       1.0  T
   3   -124.7003873  0.237526E-06  0.321E-03    2.51       3.3  T
   4   -124.7003876 -0.224102E-06  0.166E-03    2.51       6.5  T
   5   -124.7003877 -0.105774E-06  0.560E-04    2.51      19.1  T
   6   -124.7003877 -0.226447E-07  0.233E-04    2.51      46.1  T
     SCC iter.                  ...        0 min,  0.754 sec
     gradient                   ...        0 min,  0.117 sec
 * total energy  :  -122.7705801 Eh     change       -0.1676690E-04 Eh
   gradient norm :     0.0011387 Eh/α   predicted    -0.7111648E-05 ( -57.59%)
   displ. norm   :     0.2440499 α      lambda       -0.1439498E-04
   maximum displ.:     0.1422697 α      in ANC's #3, #4, #6, ...

........................................................................
.............................. CYCLE   33 ..............................
........................................................................

 iter      E             dE          RMSdq      gap      omega  full diag
   1   -124.7003910 -0.124700E+03  0.274E-02    2.51       0.0  T
   2   -124.7003915 -0.493146E-06  0.147E-02    2.52       1.0  T
   3   -124.7003912  0.324750E-06  0.371E-03    2.52       2.9  T
   4   -124.7003915 -0.286354E-06  0.199E-03    2.52       5.4  T
   5   -124.7003917 -0.167742E-06  0.567E-04    2.52      18.9  T
   6   -124.7003917 -0.252164E-07  0.231E-04    2.52      46.4  T
     SCC iter.                  ...        0 min,  0.810 sec
     gradient                   ...        0 min,  0.116 sec
 * total energy  :  -122.7705972 Eh     change       -0.1712564E-04 Eh
   gradient norm :     0.0012199 Eh/α   predicted    -0.7390074E-05 ( -56.85%)
   displ. norm   :     0.2573515 α      lambda       -0.1305439E-04
   maximum displ.:     0.1509746 α      in ANC's #3, #4, #6, ...

........................................................................
.............................. CYCLE   34 ..............................
........................................................................

 iter      E             dE          RMSdq      gap      omega  full diag
   1   -124.7004684 -0.124700E+03  0.272E-02    2.52       0.0  T
   2   -124.7004689 -0.480786E-06  0.148E-02    2.52       1.0  T
   3   -124.7004685  0.390100E-06  0.377E-03    2.52       2.8  T
   4   -124.7004689 -0.380265E-06  0.190E-03    2.52       5.7  T
   5   -124.7004690 -0.140409E-06  0.620E-04    2.52      17.3  T
   6   -124.7004690 -0.288173E-07  0.267E-04    2.52      40.1  T
     SCC iter.                  ...        0 min,  0.892 sec
     gradient                   ...        0 min,  0.121 sec
 * total energy  :  -122.7706116 Eh     change       -0.1440526E-04 Eh
   gradient norm :     0.0008268 Eh/α   predicted    -0.6722265E-05 ( -53.33%)
   displ. norm   :     0.1913331 α      lambda       -0.8147956E-05
   maximum displ.:     0.1135420 α      in ANC's #3, #4, #6, ...

........................................................................
.............................. CYCLE   35 ..............................
........................................................................

 iter      E             dE          RMSdq      gap      omega  full diag
   1   -124.7004386 -0.124700E+03  0.210E-02    2.52       0.0  T
   2   -124.7004390 -0.336710E-06  0.110E-02    2.52       1.0  T
   3   -124.7004388  0.189315E-06  0.306E-03    2.52       3.5  T
   4   -124.7004390 -0.192015E-06  0.152E-03    2.52       7.0  T
   5   -124.7004390 -0.746350E-07  0.515E-04    2.52      20.8  T
   6   -124.7004391 -0.226015E-07  0.176E-04    2.52      60.9  T
     SCC iter.                  ...        0 min,  0.755 sec
     gradient                   ...        0 min,  0.121 sec
 * total energy  :  -122.7706202 Eh     change       -0.8635061E-05 Eh
   gradient norm :     0.0004924 Eh/α   predicted    -0.4141471E-05 ( -52.04%)
   displ. norm   :     0.1353971 α      lambda       -0.5948254E-05
   maximum displ.:     0.0803048 α      in ANC's #3, #4, #2, ...

........................................................................
.............................. CYCLE   36 ..............................
........................................................................

 iter      E             dE          RMSdq      gap      omega  full diag
   1   -124.7006330 -0.124701E+03  0.138E-02    2.52       0.0  T
   2   -124.7006331 -0.133520E-06  0.759E-03    2.52       1.4  T
   3   -124.7006330  0.115659E-06  0.204E-03    2.52       5.3  T
   4   -124.7006331 -0.126062E-06  0.916E-04    2.52      11.7  T
   5   -124.7006331 -0.263040E-07  0.336E-04    2.52      31.9  T
     SCC iter.                  ...        0 min,  0.646 sec
     gradient                   ...        0 min,  0.123 sec
 * total energy  :  -122.7706268 Eh     change       -0.6529501E-05 Eh
   gradient norm :     0.0004804 Eh/α   predicted    -0.3001251E-05 ( -54.04%)
   displ. norm   :     0.1069379 α      lambda       -0.5562451E-05
   maximum displ.:     0.0595622 α      in ANC's #3, #2, #4, ...

........................................................................
.............................. CYCLE   37 ..............................
........................................................................

 iter      E             dE          RMSdq      gap      omega  full diag
   1   -124.7007095 -0.124701E+03  0.122E-02    2.52       0.0  T
   2   -124.7007096 -0.980635E-07  0.661E-03    2.52       1.6  T
   3   -124.7007096  0.559877E-07  0.166E-03    2.52       6.5  T
   4   -124.7007096 -0.621556E-07  0.784E-04    2.52      13.7  T
   5   -124.7007096 -0.220528E-07  0.203E-04    2.52      52.9  T
     SCC iter.                  ...        0 min,  0.738 sec
     gradient                   ...        0 min,  0.116 sec
 * total energy  :  -122.7706331 Eh     change       -0.6379731E-05 Eh
   gradient norm :     0.0006266 Eh/α   predicted    -0.2796952E-05 ( -56.16%)
   displ. norm   :     0.1062793 α      lambda       -0.5827495E-05
   maximum displ.:     0.0499273 α      in ANC's #3, #2, #8, ...

........................................................................
.............................. CYCLE   38 ..............................
........................................................................

 iter      E             dE          RMSdq      gap      omega  full diag
   1   -124.7006214 -0.124701E+03  0.128E-02    2.52       0.0  T
   2   -124.7006215 -0.601732E-07  0.737E-03    2.52       1.5  T
   3   -124.7006215  0.492106E-07  0.127E-03    2.52       8.5  T
   4   -124.7006215 -0.584068E-07  0.576E-04    2.52      18.6  T
   5   -124.7006215 -0.126460E-07  0.183E-04    2.52      58.6  T
     SCC iter.                  ...        0 min,  0.762 sec
     gradient                   ...        0 min,  0.120 sec
 * total energy  :  -122.7706394 Eh     change       -0.6260964E-05 Eh
   gradient norm :     0.0006256 Eh/α   predicted    -0.2928857E-05 ( -53.22%)
   displ. norm   :     0.0847253 α      lambda       -0.4173444E-05
   maximum displ.:     0.0430833 α      in ANC's #2, #3, #10, ...

........................................................................
.............................. CYCLE   39 ..............................
........................................................................

 iter      E             dE          RMSdq      gap      omega  full diag
   1   -124.7006220 -0.124701E+03  0.111E-02    2.52       0.0  T
   2   -124.7006220 -0.402750E-07  0.647E-03    2.52       1.7  T
   3   -124.7006220  0.314135E-07  0.915E-04    2.52      11.7  T
   4   -124.7006220 -0.375831E-07  0.422E-04    2.52      25.4  T
     SCC iter.                  ...        0 min,  0.552 sec
     gradient                   ...        0 min,  0.122 sec
 * total energy  :  -122.7706440 Eh     change       -0.4570939E-05 Eh
   gradient norm :     0.0004307 Eh/α   predicted    -0.2096107E-05 ( -54.14%)
   displ. norm   :     0.0730233 α      lambda       -0.3550195E-05
   maximum displ.:     0.0393426 α      in ANC's #2, #3, #6, ...

........................................................................
.............................. CYCLE   40 ..............................
........................................................................

 iter      E             dE          RMSdq      gap      omega  full diag
   1   -124.7005246 -0.124701E+03  0.942E-03    2.51       0.0  T
   2   -124.7005246 -0.277084E-07  0.552E-03    2.51       1.9  T
   3   -124.7005246  0.758853E-07  0.105E-03    2.52      10.2  T
   4   -124.7005246 -0.872648E-07  0.285E-04    2.52      37.7  T
   5   -124.7005246 -0.189422E-08  0.171E-04    2.52      62.6  T
     SCC iter.                  ...        0 min,  0.571 sec
     gradient                   ...        0 min,  0.118 sec
 * total energy  :  -122.7706481 Eh     change       -0.4168679E-05 Eh
   gradient norm :     0.0002937 Eh/α   predicted    -0.1783975E-05 ( -57.21%)
   displ. norm   :     0.0783485 α      lambda       -0.3887251E-05
   maximum displ.:     0.0435872 α      in ANC's #2, #3, #6, ...

........................................................................
.............................. CYCLE   41 ..............................
........................................................................

 iter      E             dE          RMSdq      gap      omega  full diag
   1   -124.7005389 -0.124701E+03  0.981E-03    2.51       0.0  T
   2   -124.7005389 -0.336531E-07  0.572E-03    2.51       1.9  T
   3   -124.7005389  0.659829E-07  0.108E-03    2.51       9.9  T
   4   -124.7005389 -0.804763E-07  0.274E-04    2.51      39.1  T
   5   -124.7005389 -0.121659E-08  0.114E-04    2.51      94.1  T
     SCC iter.                  ...        0 min,  0.653 sec
     gradient                   ...        0 min,  0.121 sec
 * total energy  :  -122.7706527 Eh     change       -0.4521295E-05 Eh
   gradient norm :     0.0003819 Eh/α   predicted    -0.1952001E-05 ( -56.83%)
   displ. norm   :     0.0829817 α      lambda       -0.3615367E-05
   maximum displ.:     0.0460245 α      in ANC's #2, #3, #6, ...

........................................................................
.............................. CYCLE   42 ..............................
........................................................................

 iter      E             dE          RMSdq      gap      omega  full diag
   1   -124.7005056 -0.124701E+03  0.961E-03    2.51       0.0  T
   2   -124.7005056 -0.326156E-07  0.555E-03    2.51       1.9  T
   3   -124.7005056  0.340769E-07  0.913E-04    2.51      11.7  T
   4   -124.7005056 -0.424852E-07  0.364E-04    2.51      29.4  T
     SCC iter.                  ...        0 min,  0.390 sec
     gradient                   ...        0 min,  0.118 sec
 * total energy  :  -122.7706568 Eh     change       -0.4135863E-05 Eh
   gradient norm :     0.0004818 Eh/α   predicted    -0.1815079E-05 ( -56.11%)
   displ. norm   :     0.0866442 α      lambda       -0.3138963E-05
   maximum displ.:     0.0477542 α      in ANC's #2, #3, #6, ...
 * RMSD in coord.:     0.2505000 α      energy gain  -0.3095334E-03 Eh

generating ANC from exact Hessian ...
Using Lindh-Hessian (1995)
 Shifting diagonal of input Hessian by    9.9152382998899721E-003
 Lowest  eigenvalues of input Hessian
    0.000000    0.000000    0.000000    0.000000    0.000000    0.000000
    0.010000    0.010018    0.010091    0.010148    0.010284    0.010413
    0.010566    0.010600    0.010743    0.010903    0.010930    0.011250
 Highest eigenvalues
    2.019214    2.028538    2.074421    2.097377    2.115610    2.127185


........................................................................
.............................. CYCLE   43 ..............................
........................................................................

 iter      E             dE          RMSdq      gap      omega  full diag
   1   -124.7005014 -0.124701E+03  0.922E-03    2.51       0.0  T
   2   -124.7005014 -0.304458E-07  0.527E-03    2.51       2.0  T
   3   -124.7005014  0.258217E-07  0.899E-04    2.51      11.9  T
   4   -124.7005014 -0.256597E-07  0.450E-04    2.51      23.9  T
     SCC iter.                  ...        0 min,  0.496 sec
     gradient                   ...        0 min,  0.132 sec
 * total energy  :  -122.7706604 Eh     change       -0.3568109E-05 Eh
   gradient norm :     0.0003951 Eh/α   predicted     0.0000000E+00 (-100.00%)
   displ. norm   :     0.0123379 α      lambda       -0.9558211E-06
   maximum displ.:     0.0049257 α      in ANC's #6, #2, #3, ...

........................................................................
.............................. CYCLE   44 ..............................
........................................................................

 iter      E             dE          RMSdq      gap      omega  full diag
   1   -124.7005810 -0.124701E+03  0.227E-03    2.51       0.0  T
   2   -124.7005810 -0.466834E-08  0.122E-03    2.51       8.8  T
   3   -124.7005810  0.519070E-08  0.391E-04    2.51      27.4  T
   4   -124.7005810 -0.466463E-08  0.184E-04    2.51      58.3  T
     SCC iter.                  ...        0 min,  0.567 sec
     gradient                   ...        0 min,  0.122 sec
 * total energy  :  -122.7706617 Eh     change       -0.1377513E-05 Eh
   gradient norm :     0.0002171 Eh/α   predicted    -0.5438763E-06 ( -60.52%)
   displ. norm   :     0.0447695 α      lambda       -0.2265040E-05
   maximum displ.:     0.0196239 α      in ANC's #6, #2, #3, ...

........................................................................
.............................. CYCLE   45 ..............................
........................................................................

 iter      E             dE          RMSdq      gap      omega  full diag
   1   -124.7006963 -0.124701E+03  0.611E-03    2.51       0.0  T
   2   -124.7006963 -0.226773E-07  0.354E-03    2.51       3.0  T
   3   -124.7006963  0.176923E-07  0.774E-04    2.51      13.8  T
   4   -124.7006963 -0.224866E-07  0.217E-04    2.51      49.4  T
     SCC iter.                  ...        0 min,  0.718 sec
     gradient                   ...        0 min,  0.124 sec
 * total energy  :  -122.7706642 Eh     change       -0.2416465E-05 Eh
   gradient norm :     0.0003225 Eh/α   predicted    -0.1422635E-05 ( -41.13%)
   displ. norm   :     0.0437468 α      lambda        0.1816559E-05
   maximum displ.:     0.0191318 α      in ANC's #6, #2, #3, ...

........................................................................
.............................. CYCLE   46 ..............................
........................................................................

 iter      E             dE          RMSdq      gap      omega  full diag
   1   -124.7007870 -0.124701E+03  0.600E-03    2.52       0.0  T
   2   -124.7007871 -0.227171E-07  0.348E-03    2.52       3.1  T
   3   -124.7007870  0.313124E-07  0.890E-04    2.51      12.0  T
   4   -124.7007871 -0.376137E-07  0.223E-04    2.51      48.1  T
     SCC iter.                  ...        0 min,  0.545 sec
     gradient                   ...        0 min,  0.122 sec
 * total energy  :  -122.7706629 Eh     change        0.1290049E-05 Eh
   gradient norm :     0.0008017 Eh/α   predicted     0.9083765E-06 ( -29.59%)
   displ. norm   :     0.0253271 α      lambda       -0.2512852E-05
   maximum displ.:     0.0089769 α      in ANC's #6, #26, #31, ...

........................................................................
.............................. CYCLE   47 ..............................
........................................................................

 iter      E             dE          RMSdq      gap      omega  full diag
   1   -124.7006447 -0.124701E+03  0.524E-03    2.51       0.0  T
   2   -124.7006448 -0.335278E-07  0.287E-03    2.51       3.7  T
   3   -124.7006448  0.108945E-07  0.785E-04    2.51      13.7  T
   4   -124.7006448 -0.129930E-07  0.357E-04    2.51      30.0  T
     SCC iter.                  ...        0 min,  0.500 sec
     gradient                   ...        0 min,  0.126 sec
 * total energy  :  -122.7706650 Eh     change       -0.2106479E-05 Eh
   gradient norm :     0.0003175 Eh/α   predicted    -0.1258062E-05 ( -40.28%)
   displ. norm   :     0.0111952 α      lambda       -0.7977256E-06
   maximum displ.:     0.0036190 α      in ANC's #31, #23, #2, ...

........................................................................
.............................. CYCLE   48 ..............................
........................................................................

 iter      E             dE          RMSdq      gap      omega  full diag
   1   -124.7006272 -0.124701E+03  0.426E-03    2.51       0.0  T
   2   -124.7006272 -0.295716E-07  0.203E-03    2.51       5.3  T
   3   -124.7006272  0.251070E-07  0.852E-04    2.51      12.6  T
   4   -124.7006272 -0.292402E-07  0.397E-04    2.51      27.0  T
     SCC iter.                  ...        0 min,  0.440 sec
     gradient                   ...        0 min,  0.120 sec
 * total energy  :  -122.7706655 Eh     change       -0.5567000E-06 Eh
   gradient norm :     0.0001977 Eh/α   predicted    -0.3990444E-06 ( -28.32%)
   displ. norm   :     0.0218595 α      lambda       -0.9499464E-06
   maximum displ.:     0.0109294 α      in ANC's #6, #2, #3, ...

........................................................................
.............................. CYCLE   49 ..............................
........................................................................

 iter      E             dE          RMSdq      gap      omega  full diag
   1   -124.7006198 -0.124701E+03  0.375E-03    2.51       0.0  T
   2   -124.7006198 -0.173024E-07  0.205E-03    2.51       5.2  T
   3   -124.7006198  0.157303E-07  0.633E-04    2.51      16.9  T
   4   -124.7006198 -0.632940E-08  0.397E-04    2.51      27.0  T
     SCC iter.                  ...        0 min,  0.563 sec
     gradient                   ...        0 min,  0.124 sec
 * total energy  :  -122.7706665 Eh     change       -0.9700801E-06 Eh
   gradient norm :     0.0001544 Eh/α   predicted    -0.4784310E-06 ( -50.68%)
   displ. norm   :     0.0460695 α      lambda       -0.1283199E-05
   maximum displ.:     0.0247682 α      in ANC's #2, #6, #3, ...

........................................................................
.............................. CYCLE   50 ..............................
........................................................................

 iter      E             dE          RMSdq      gap      omega  full diag
   1   -124.7005924 -0.124701E+03  0.677E-03    2.51       0.0  T
   2   -124.7005925 -0.518582E-07  0.362E-03    2.51       3.0  T
   3   -124.7005924  0.190088E-07  0.105E-03    2.51      10.2  T
   4   -124.7005925 -0.259445E-07  0.446E-04    2.51      24.0  T
   5   -124.7005925 -0.309883E-08  0.183E-04    2.51      58.7  T
     SCC iter.                  ...        0 min,  0.567 sec
     gradient                   ...        0 min,  0.120 sec
 * total energy  :  -122.7706675 Eh     change       -0.9649954E-06 Eh
   gradient norm :     0.0002875 Eh/α   predicted    -0.6465429E-06 ( -33.00%)
   displ. norm   :     0.0444737 α      lambda       -0.1068229E-05
   maximum displ.:     0.0242561 α      in ANC's #6, #3, #2, ...

........................................................................
.............................. CYCLE   51 ..............................
........................................................................

 iter      E             dE          RMSdq      gap      omega  full diag
   1   -124.7005122 -0.124701E+03  0.557E-03    2.51       0.0  T
   2   -124.7005123 -0.284564E-07  0.307E-03    2.51       3.5  T
   3   -124.7005123  0.146101E-07  0.782E-04    2.51      13.7  T
   4   -124.7005123 -0.111380E-07  0.402E-04    2.51      26.7  T
     SCC iter.                  ...        0 min,  0.459 sec
     gradient                   ...        0 min,  0.126 sec
 * total energy  :  -122.7706684 Eh     change       -0.8975306E-06 Eh
   gradient norm :     0.0002314 Eh/α   predicted    -0.5377359E-06 ( -40.09%)
   displ. norm   :     0.0147861 α      lambda       -0.4405105E-06
   maximum displ.:     0.0083822 α      in ANC's #3, #6, #2, ...

........................................................................
.............................. CYCLE   52 ..............................
........................................................................

 iter      E             dE          RMSdq      gap      omega  full diag
   1   -124.7006054 -0.124701E+03  0.202E-03    2.51       0.0  T
   2   -124.7006054 -0.307300E-08  0.115E-03    2.51       9.3  T
   3   -124.7006053  0.262246E-07  0.556E-04    2.51      19.3  T
   4   -124.7006054 -0.288105E-07  0.144E-04    2.51      74.6  T
     SCC iter.                  ...        0 min,  0.409 sec
     gradient                   ...        0 min,  0.117 sec
 * total energy  :  -122.7706689 Eh     change       -0.5232613E-06 Eh
   gradient norm :     0.0001056 Eh/α   predicted    -0.2206737E-06 ( -57.83%)
   displ. norm   :     0.0279395 α      lambda       -0.6949844E-06
   maximum displ.:     0.0156175 α      in ANC's #3, #6, #2, ...

........................................................................
.............................. CYCLE   53 ..............................
........................................................................

 iter      E             dE          RMSdq      gap      omega  full diag
   1   -124.7006872 -0.124701E+03  0.383E-03    2.51       0.0  T
   2   -124.7006872 -0.108942E-07  0.218E-03    2.51       4.9  T
   3   -124.7006872  0.294004E-08  0.426E-04    2.51      25.2  T
   4   -124.7006872 -0.304885E-08  0.200E-04    2.51      53.7  T
     SCC iter.                  ...        0 min,  0.563 sec
     gradient                   ...        0 min,  0.120 sec
 * total energy  :  -122.7706697 Eh     change       -0.7870684E-06 Eh
   gradient norm :     0.0001658 Eh/α   predicted    -0.3490292E-06 ( -55.65%)
   displ. norm   :     0.0404312 α      lambda       -0.7037528E-06
   maximum displ.:     0.0227409 α      in ANC's #3, #6, #2, ...

........................................................................
.............................. CYCLE   54 ..............................
........................................................................

 iter      E             dE          RMSdq      gap      omega  full diag
   1   -124.7006592 -0.124701E+03  0.505E-03    2.51       0.0  T
   2   -124.7006592 -0.870726E-08  0.296E-03    2.51       3.6  T
   3   -124.7006592  0.147607E-07  0.503E-04    2.51      21.3  T
   4   -124.7006592 -0.175178E-07  0.161E-04    2.51      66.7  T
     SCC iter.                  ...        0 min,  0.426 sec
     gradient                   ...        0 min,  0.113 sec
 * total energy  :  -122.7706704 Eh     change       -0.7801173E-06 Eh
   gradient norm :     0.0002048 Eh/α   predicted    -0.3531874E-06 ( -54.73%)
   displ. norm   :     0.0404412 α      lambda       -0.5530580E-06
   maximum displ.:     0.0232579 α      in ANC's #3, #6, #2, ...

........................................................................
.............................. CYCLE   55 ..............................
........................................................................

 iter      E             dE          RMSdq      gap      omega  full diag
   1   -124.7006345 -0.124701E+03  0.494E-03    2.51       0.0  T
   2   -124.7006345 -0.559751E-08  0.291E-03    2.51       3.7  T
   3   -124.7006345  0.979435E-08  0.407E-04    2.51      26.3  T
   4   -124.7006345 -0.124103E-07  0.103E-04    2.51     104.3  T
     SCC iter.                  ...        0 min,  0.414 sec
     gradient                   ...        0 min,  0.114 sec
 * total energy  :  -122.7706711 Eh     change       -0.6244487E-06 Eh
   gradient norm :     0.0001572 Eh/α   predicted    -0.2780064E-06 ( -55.48%)
   displ. norm   :     0.0391604 α      lambda       -0.4993460E-06
   maximum displ.:     0.0230101 α      in ANC's #3, #2, #6, ...

........................................................................
.............................. CYCLE   56 ..............................
........................................................................

 iter      E             dE          RMSdq      gap      omega  full diag
   1   -124.7006037 -0.124701E+03  0.483E-03    2.51       0.0  T
   2   -124.7006038 -0.560841E-08  0.283E-03    2.51       3.8  T
   3   -124.7006037  0.179495E-07  0.506E-04    2.51      21.2  T
   4   -124.7006038 -0.201138E-07  0.149E-04    2.51      71.7  T
     SCC iter.                  ...        0 min,  0.473 sec
     gradient                   ...        0 min,  0.119 sec
 * total energy  :  -122.7706717 Eh     change       -0.5800700E-06 Eh
   gradient norm :     0.0000922 Eh/α   predicted    -0.2514565E-06 ( -56.65%)
   displ. norm   :     0.0413009 α      lambda       -0.5245391E-06
   maximum displ.:     0.0244636 α      in ANC's #3, #2, #6, ...

........................................................................
.............................. CYCLE   57 ..............................
........................................................................

 iter      E             dE          RMSdq      gap      omega  full diag
   1   -124.7005855 -0.124701E+03  0.512E-03    2.51       0.0  T
   2   -124.7005855 -0.638072E-08  0.301E-03    2.51       3.6  T
   3   -124.7005855  0.258945E-07  0.578E-04    2.51      18.5  T
   4   -124.7005855 -0.263973E-07  0.208E-04    2.51      51.5  T
     SCC iter.                  ...        0 min,  0.486 sec
     gradient                   ...        0 min,  0.121 sec
 * total energy  :  -122.7706722 Eh     change       -0.5930134E-06 Eh
   gradient norm :     0.0001191 Eh/α   predicted    -0.2647475E-06 ( -55.36%)
   displ. norm   :     0.0372949 α      lambda       -0.3913102E-06
   maximum displ.:     0.0223250 α      in ANC's #3, #2, #6, ...

........................................................................
.............................. CYCLE   58 ..............................
........................................................................

 iter      E             dE          RMSdq      gap      omega  full diag
   1   -124.7005979 -0.124701E+03  0.457E-03    2.51       0.0  T
   2   -124.7005979 -0.565359E-08  0.264E-03    2.51       4.1  T
   3   -124.7005979  0.150349E-07  0.489E-04    2.51      21.9  T
   4   -124.7005979 -0.123501E-07  0.263E-04    2.51      40.8  T
     SCC iter.                  ...        0 min,  0.504 sec
     gradient                   ...        0 min,  0.117 sec
 * total energy  :  -122.7706727 Eh     change       -0.4379303E-06 Eh
   gradient norm :     0.0001301 Eh/α   predicted    -0.1988277E-06 ( -54.60%)
   displ. norm   :     0.0209992 α      lambda       -0.1994889E-06
   maximum displ.:     0.0128216 α      in ANC's #3, #2, #6, ...

........................................................................
.............................. CYCLE   59 ..............................
........................................................................

 iter      E             dE          RMSdq      gap      omega  full diag
   1   -124.7006122 -0.124701E+03  0.244E-03    2.51       0.0  T
   2   -124.7006122 -0.238305E-08  0.139E-03    2.51       7.7  T
   3   -124.7006122  0.383746E-08  0.292E-04    2.51      36.8  T
   4   -124.7006122 -0.175957E-08  0.185E-04    2.51      58.0  T
     SCC iter.                  ...        0 min,  0.385 sec
     gradient                   ...        0 min,  0.113 sec
 * total energy  :  -122.7706729 Eh     change       -0.2406236E-06 Eh
   gradient norm :     0.0000875 Eh/α   predicted    -0.1044520E-06 ( -56.59%)
   displ. norm   :     0.0179532 α      lambda       -0.1842871E-06
   maximum displ.:     0.0109710 α      in ANC's #3, #2, #1, ...

........................................................................
.............................. CYCLE   60 ..............................
........................................................................

 iter      E             dE          RMSdq      gap      omega  full diag
   1   -124.7006302 -0.124701E+03  0.216E-03    2.51       0.0  T
   2   -124.7006302 -0.313784E-08  0.114E-03    2.51       9.4  T
   3   -124.7006302  0.117475E-08  0.283E-04    2.51      37.9  T
   4   -124.7006302  0.700325E-09  0.185E-04    2.51      58.0  T
     SCC iter.                  ...        0 min,  0.520 sec
     gradient                   ...        0 min,  0.120 sec
 * total energy  :  -122.7706731 Eh     change       -0.2142745E-06 Eh
   gradient norm :     0.0000535 Eh/α   predicted    -0.9409560E-07 ( -56.09%)
   displ. norm   :     0.0163000 α      lambda       -0.1383846E-06
   maximum displ.:     0.0103295 α      in ANC's #3, #2, #1, ...

........................................................................
.............................. CYCLE   61 ..............................
........................................................................

 iter      E             dE          RMSdq      gap      omega  full diag
   1   -124.7006367 -0.124701E+03  0.187E-03    2.51       0.0  T
   2   -124.7006367 -0.223953E-08  0.996E-04    2.51      10.8  T
   3   -124.7006367  0.112507E-08  0.239E-04    2.51      44.9  T
     SCC iter.                  ...        0 min,  0.258 sec
     gradient                   ...        0 min,  0.115 sec
 * total energy  :  -122.7706733 Eh     change       -0.1696992E-06 Eh
   gradient norm :     0.0000687 Eh/α   predicted    -0.7328360E-07 ( -56.82%)
   displ. norm   :     0.0117548 α      lambda       -0.9055081E-07
   maximum displ.:     0.0075040 α      in ANC's #3, #2, #4, ...

[...]
    15   6 C        3.753    -0.127    22.999     6.839
    16   6 C        3.754    -0.127    23.000     6.839
    17   6 C        3.922     0.086    19.099     6.211
    18   6 C        3.774    -0.129    23.004     6.834
    19   6 C        3.760    -0.123    22.907     6.823
    20   6 C        3.760    -0.119    22.835     6.812
    21   7 N        2.683    -0.130    23.833     7.251
    22   6 C        3.884    -0.029    21.043     6.522
    23   6 C        3.046     0.053    26.772     8.486
    24   6 C        2.916    -0.053    29.324     8.880
    25   6 C        2.918    -0.034    28.854     8.809
    26   6 C        2.987     0.012    27.751     8.641
    27   6 C        2.919    -0.031    28.777     8.797
    28   6 C        2.915    -0.023    28.574     8.766
    29   6 C        2.917    -0.023    28.574     8.766
    30   6 C        2.917    -0.032    28.794     8.799
    31   6 C        2.989     0.012    27.739     8.640
    32   6 C        2.977    -0.011    28.293     8.725
    33   6 C        2.978    -0.010    28.252     8.719
    34   6 C        3.191     0.053    26.333     8.369
    35   6 C        2.915    -0.048    29.201     8.861
    36   6 C        2.919    -0.031    28.772     8.796
    37   6 C        2.987     0.014    27.701     8.634
    38   6 C        2.920    -0.031    28.762     8.795
    39   6 C        2.915    -0.024    28.605     8.770
    40   6 C        2.917    -0.025    28.619     8.773
    41   6 C        2.917    -0.034    28.837     8.806
    42   6 C        2.988     0.012    27.727     8.638
    43   7 N        2.682    -0.130    23.826     7.249
    44   6 C        3.884    -0.040    21.238     6.552
    45   1 H        0.925     0.073     2.056     2.243
    46   1 H        0.924     0.056     2.252     2.347
    47   1 H        0.924     0.048     2.349     2.397
    48   1 H        0.926     0.054     2.275     2.359
    49   1 H        0.926     0.057     2.236     2.338
    50   1 H        0.926     0.053     2.279     2.361
    51   1 H        0.925     0.061     2.188     2.313
    52   1 H        0.925     0.055     2.264     2.353
    53   1 H        0.925     0.052     2.295     2.369
    54   1 H        0.925     0.070     2.082     2.257
    55   1 H        0.925     0.061     2.187     2.313
    56   1 H        0.925     0.058     2.224     2.332
    57   1 H        0.925     0.049     2.335     2.390
    58   1 H        0.925     0.054     2.276     2.359
    59   1 H        0.925     0.068     2.112     2.273
    60   1 H        0.925     0.061     2.188     2.313
    61   1 H        0.925     0.058     2.219     2.329
    62   1 H        0.925     0.064     2.154     2.295
    63   1 H        0.925     0.057     2.231     2.336
    64   1 H        0.925     0.066     2.131     2.283
    65   1 H        0.925     0.048     2.346     2.395
    66   1 H        0.925     0.055     2.259     2.351
    67   1 H        0.925     0.051     2.308     2.376
    68   1 H        0.925     0.041     2.435     2.440
    69   1 H        0.925     0.062     2.172     2.305
    70   1 H        0.925     0.061     2.191     2.315
    71   1 H        0.924     0.047     2.353     2.399
    72   1 H        0.925     0.072     2.062     2.246
    73   1 H        0.926     0.039     2.468     2.457
    74   1 H        0.926     0.051     2.305     2.374
    75   1 H        0.926     0.046     2.364     2.404
    76   1 H        0.926     0.049     2.328     2.386
    77   1 H        0.926     0.047     2.358     2.402
    78   1 H        0.926     0.039     2.464     2.455
    79   1 H        0.926     0.044     2.396     2.421
    80   1 H        0.926     0.053     2.281     2.362
    81   1 H        0.926     0.047     2.354     2.399
    82   1 H        0.926     0.048     2.341     2.393
    83   1 H        0.926     0.045     2.385     2.415
    84   1 H        0.926     0.037     2.491     2.468
    85   1 H        0.925     0.074     2.044     2.236
    86   1 H        0.925     0.068     2.102     2.267
    87   1 H        0.924     0.054     2.275     2.358

 Mol. C6AA /au·bohr⁶  :      95219.473362
 Mol. C8AA /au·bohr⁸  :    2516709.152785
 Mol. α(0) /au        :        490.432800


Wiberg/Mayer (AO) data.
largest (>0.10) Wiberg bond orders for each atom

 ---------------------------------------------------------------------------
     #   Z sym  total        # sym  WBO       # sym  WBO       # sym  WBO
 ---------------------------------------------------------------------------
     1   6 C    3.934 --    45 H    0.978    47 H    0.976    46 H    0.976
                             2 O    0.972
     2   8 O    2.271 --     3 C    1.076     1 C    0.972
     3   6 C    3.937 --     4 C    1.371     9 C    1.316     2 O    1.076
     4   6 C    3.986 --     5 C    1.434     3 C    1.371    48 H    0.963
     5   6 C    3.982 --     6 C    1.441     4 C    1.434    49 H    0.969
     6   6 C    3.989 --     5 C    1.441     7 C    1.398    50 H    0.966
     7   6 C    3.986 --     6 C    1.398     9 C    1.381     8 C    1.031
     8   6 C    3.993 --     7 C    1.031    52 H    0.982    53 H    0.968
                            51 H    0.962
     9   6 C    3.944 --     7 C    1.381     3 C    1.316    10 S    0.996
    10  16 S    2.400 --    11 S    1.155     9 C    0.996
    11  16 S    2.487 --    10 S    1.155    12 P    0.988
    12  15 P    5.073 --    13 N    1.259    21 N    1.180    43 N    1.176
                            11 S    0.988
    13   7 N    3.389 --    12 P    1.259    14 C    0.936    17 C    0.910
    14   6 C    3.957 --    16 C    1.008    15 C    1.005    54 H    0.950
                            13 N    0.936
    15   6 C    3.991 --    14 C    1.005    55 H    0.981    57 H    0.980
                            56 H    0.970
    16   6 C    3.990 --    14 C    1.008    58 H    0.981    59 H    0.978
                            60 H    0.959
    17   6 C    3.951 --    18 C    0.999    20 C    0.996    19 C    0.993
                            13 N    0.910
    18   6 C    3.990 --    17 C    0.999    62 H    0.977    61 H    0.975
                            63 H    0.947
    19   6 C    3.988 --    17 C    0.993    65 H    0.979    64 H    0.978
                            66 H    0.977
    20   6 C    3.991 --    17 C    0.996    67 H    0.980    69 H    0.979
                            68 H    0.978
    21   7 N    3.413 --    12 P    1.180    23 C    0.989    22 C    0.974
    22   6 C    3.964 --    72 H    0.976    21 N    0.974    71 H    0.971
                            70 H    0.963
    23   6 C    3.950 --    32 C    1.446    24 C    1.274    21 N    0.989
    24   6 C    3.985 --    25 C    1.558    23 C    1.274    73 H    0.964
    25   6 C    3.984 --    24 C    1.558    26 C    1.273    74 H    0.966
                            32 C    0.105
    26   6 C    3.988 --    27 C    1.280    25 C    1.273    31 C    1.255
    27   6 C    3.989 --    28 C    1.555    26 C    1.280    75 H    0.967
                            30 C    0.117
    28   6 C    3.985 --    27 C    1.555    29 C    1.323    76 H    0.970
    29   6 C    3.990 --    30 C    1.553    28 C    1.323    77 H    0.970
    30   6 C    3.989 --    29 C    1.553    31 C    1.284    78 H    0.965
                            27 C    0.117
    31   6 C    3.987 --    30 C    1.284    26 C    1.255    32 C    1.233
    32   6 C    3.985 --    23 C    1.446    31 C    1.233    33 C    1.032
                            25 C    0.105
    33   6 C    3.986 --    34 C    1.453    42 C    1.232    32 C    1.032
                            36 C    0.106
    34   6 C    3.952 --    33 C    1.453    35 C    1.285    43 N    0.973
    35   6 C    3.988 --    36 C    1.554    34 C    1.285    79 H    0.963
    36   6 C    3.985 --    35 C    1.554    37 C    1.275    80 H    0.966
                            33 C    0.106
    37   6 C    3.989 --    38 C    1.279    36 C    1.275    42 C    1.254
    38   6 C    3.988 --    39 C    1.556    37 C    1.279    81 H    0.967
                            41 C    0.118
    39   6 C    3.986 --    38 C    1.556    40 C    1.322    82 H    0.970
    40   6 C    3.990 --    41 C    1.553    39 C    1.322    83 H    0.970
    41   6 C    3.989 --    40 C    1.553    42 C    1.283    84 H    0.965
                            38 C    0.118
    42   6 C    3.987 --    41 C    1.283    37 C    1.254    33 C    1.232
    43   7 N    3.381 --    12 P    1.176    34 C    0.973    44 C    0.972
    44   6 C    3.962 --    85 H    0.978    43 N    0.972    87 H    0.971
                            86 H    0.964
    45   1 H    0.994 --     1 C    0.978
    46   1 H    0.997 --     1 C    0.976
    47   1 H    0.998 --     1 C    0.976
    48   1 H    0.997 --     4 C    0.963
    49   1 H    0.996 --     5 C    0.969
    50   1 H    0.996 --     6 C    0.966
    51   1 H    0.996 --     8 C    0.962
    52   1 H    0.997 --     8 C    0.982
    53   1 H    0.997 --     8 C    0.968
    54   1 H    0.994 --    14 C    0.950
    55   1 H    0.995 --    15 C    0.981
    56   1 H    0.997 --    15 C    0.970
    57   1 H    0.998 --    15 C    0.980
    58   1 H    0.997 --    16 C    0.981
    59   1 H    0.994 --    16 C    0.978
    60   1 H    0.996 --    16 C    0.959
    61   1 H    0.997 --    18 C    0.975
    62   1 H    0.995 --    18 C    0.977
    63   1 H    0.997 --    18 C    0.947
    64   1 H    0.994 --    19 C    0.978
    65   1 H    0.998 --    19 C    0.979
    66   1 H    0.997 --    19 C    0.977
    67   1 H    0.997 --    20 C    0.980
    68   1 H    0.998 --    20 C    0.978
    69   1 H    0.995 --    20 C    0.979
    70   1 H    0.995 --    22 C    0.963
    71   1 H    0.997 --    22 C    0.971
    72   1 H    0.994 --    22 C    0.976
    73   1 H    0.997 --    24 C    0.964
    74   1 H    0.996 --    25 C    0.966
    75   1 H    0.997 --    27 C    0.967
    76   1 H    0.997 --    28 C    0.970
    77   1 H    0.997 --    29 C    0.970
    78   1 H    0.998 --    30 C    0.965
    79   1 H    0.997 --    35 C    0.963
    80   1 H    0.996 --    36 C    0.966
    81   1 H    0.997 --    38 C    0.967
    82   1 H    0.997 --    39 C    0.970
    83   1 H    0.997 --    40 C    0.970
    84   1 H    0.998 --    41 C    0.965
    85   1 H    0.994 --    44 C    0.978
    86   1 H    0.995 --    44 C    0.964
    87   1 H    0.997 --    44 C    0.971
 ---------------------------------------------------------------------------

Topologies differ in total number of bonds
Writing topology from bond orders to xtbtopo.mol

molecular dipole:
                 x           y           z       tot (Debye)
 q only:       -0.663       1.379      -0.725
   full:       -1.065       1.251      -0.563       4.415
molecular quadrupole (traceless):
                xx          xy          yy          xz          yz          zz
 q only:       11.705      -1.481      -1.566      10.075     -14.578     -10.139
  q+dip:       11.629      -1.441      -1.381      10.208      -8.972     -10.247
   full:       12.997       0.706      -0.445       8.554     -12.199     -12.551

           -------------------------------------------------
          |                Geometry Summary                 |
           -------------------------------------------------

      molecular mass/u    :      640.8615319
   center of mass at/Å    :        0.0679296      -0.3878309       0.0209104
  moments of inertia/u·Å² :        0.5431514E+04   0.6800687E+04   0.9064642E+04
rotational constants/cm⁻¹ :        0.3103671E-02   0.2478813E-02   0.1859713E-02

 * 88 selected distances

     #   Z          #   Z                                           value/Å
     1   6 C        2   8 O                                       1.4102997
     2   8 O        3   6 C                                       1.3563908
     3   6 C        4   6 C                                       1.3891550
     4   6 C        5   6 C                                       1.3842396
     5   6 C        6   6 C                                       1.3820184
     6   6 C        7   6 C                                       1.3896285
     3   6 C        9   6 C                                       1.4021791
     7   6 C        9   6 C                                       1.3915509
    10  16 S       11  16 S                                       2.0434820
    11  16 S       12  15 P                                       2.1403638 (max)
    12  15 P       13   7 N                                       1.6575638
    13   7 N       14   6 C                                       1.4813371
    14   6 C       15   6 C                                       1.5276689
    14   6 C       16   6 C                                       1.5239399
    17   6 C       18   6 C                                       1.5269987
    17   6 C       19   6 C                                       1.5369794
    17   6 C       20   6 C                                       1.5311352
    12  15 P       21   7 N                                       1.6693312
    21   7 N       22   6 C                                       1.4584360
    21   7 N       23   6 C                                       1.4239005
    23   6 C       24   6 C                                       1.4103430
    24   6 C       25   6 C                                       1.3641661
    25   6 C       26   6 C                                       1.4095554
    26   6 C       27   6 C                                       1.4099509
    27   6 C       28   6 C                                       1.3664381
    28   6 C       29   6 C                                       1.4029827
    29   6 C       30   6 C                                       1.3672495
    26   6 C       31   6 C                                       1.4189853
    30   6 C       31   6 C                                       1.4114094
    23   6 C       32   6 C                                       1.3794810
    31   6 C       32   6 C                                       1.4244839
    33   6 C       34   6 C                                       1.3773571
    34   6 C       35   6 C                                       1.4075534
    35   6 C       36   6 C                                       1.3641813
    36   6 C       37   6 C                                       1.4086503
    37   6 C       38   6 C                                       1.4101862
    38   6 C       39   6 C                                       1.3660952
    39   6 C       40   6 C                                       1.4027681
    40   6 C       41   6 C                                       1.3671297
    33   6 C       42   6 C                                       1.4254532
    37   6 C       42   6 C                                       1.4190706
    41   6 C       42   6 C                                       1.4121788
    12  15 P       43   7 N                                       1.6703651
    34   6 C       43   7 N                                       1.4348675
    43   7 N       44   6 C                                       1.4607195
     1   6 C       45   1 H                                       1.0883386
     1   6 C       46   1 H                                       1.0928179
     1   6 C       47   1 H                                       1.0939201
     4   6 C       48   1 H                                       1.0772980 (min)
     5   6 C       49   1 H                                       1.0787132
     6   6 C       50   1 H                                       1.0786705
     8   6 C       51   1 H                                       1.0899891
     8   6 C       52   1 H                                       1.0866026
     8   6 C       53   1 H                                       1.0877884
    14   6 C       54   1 H                                       1.0893240
    15   6 C       55   1 H                                       1.0874402
    15   6 C       56   1 H                                       1.0848844
    15   6 C       57   1 H                                       1.0869573
    16   6 C       58   1 H                                       1.0867420
    16   6 C       59   1 H                                       1.0867151
    16   6 C       60   1 H                                       1.0869180
    18   6 C       61   1 H                                       1.0850485
    18   6 C       62   1 H                                       1.0879450
    18   6 C       63   1 H                                       1.0839430
    19   6 C       64   1 H                                       1.0866066
    19   6 C       65   1 H                                       1.0866779
    19   6 C       66   1 H                                       1.0861830
    20   6 C       67   1 H                                       1.0864144
    20   6 C       68   1 H                                       1.0872574
    20   6 C       69   1 H                                       1.0866140
    22   6 C       70   1 H                                       1.0899075
    22   6 C       71   1 H                                       1.0929114
    22   6 C       72   1 H                                       1.0890891
    24   6 C       73   1 H                                       1.0780945
    25   6 C       74   1 H                                       1.0792886
    27   6 C       75   1 H                                       1.0798426
    28   6 C       76   1 H                                       1.0790290
    29   6 C       77   1 H                                       1.0792435
    30   6 C       78   1 H                                       1.0790932
    35   6 C       79   1 H                                       1.0776107
    36   6 C       80   1 H                                       1.0791230
    38   6 C       81   1 H                                       1.0797566
    39   6 C       82   1 H                                       1.0791005
    40   6 C       83   1 H                                       1.0793669
    41   6 C       84   1 H                                       1.0789310
    44   6 C       85   1 H                                       1.0891413
    44   6 C       86   1 H                                       1.0865263
    44   6 C       87   1 H                                       1.0928242

 * 7 distinct bonds (by element types)

   Z      Z             #   av. dist./Å        max./Å        min./Å
   1 H    6 C          43     1.0848532     1.0939201     1.0772980
   6 C    6 C          33     1.4154898     1.5369794     1.3641661
   6 C    7 N           5     1.4518521     1.4813371     1.4239005
   6 C    8 O           2     1.3833452     1.4102997     1.3563908
   7 N   15 P           3     1.6657534     1.6703651     1.6575638
  15 P   16 S           1     2.1403638     2.1403638     2.1403638
  16 S   16 S           1     2.0434820     2.0434820     2.0434820


optimized geometry written to: xtbopt.xyz


           -------------------------------------------------
          | TOTAL ENERGY             -122.770673985088 Eh   |
          | GRADIENT NORM               0.000029391901 Eh/α |
          | HOMO-LUMO GAP               2.510028170639 eV   |
           -------------------------------------------------

------------------------------------------------------------------------
 * finished run on 2024/12/16 at 20:32:32.192     
------------------------------------------------------------------------
 total:
 * wall-time:     0 d,  0 h,  1 min,  5.467 sec
 *  cpu-time:     0 d,  0 h,  8 min, 36.945 sec
 * ratio c/w:     7.896 speedup
 SCF:
 * wall-time:     0 d,  0 h,  0 min,  2.391 sec
 *  cpu-time:     0 d,  0 h,  0 min, 19.018 sec
 * ratio c/w:     7.955 speedup
 ANC optimizer:
 * wall-time:     0 d,  0 h,  1 min,  2.915 sec
 *  cpu-time:     0 d,  0 h,  8 min, 16.691 sec
 * ratio c/w:     7.895 speedup

