80
 energy: -116.585057167980 gnorm: 0.000033696635 xtb: 6.7.1 (edcfbbe)
C           -3.14578656936999       -3.23939840488335        1.82193069437209
C           -3.35644617983451       -2.54125530936542        0.48434163861506
C           -4.31828367736568       -1.36140988742714        0.60764872330484
N           -2.06692800002522       -2.20286284430779       -0.16518217125749
C           -1.85677551757742       -2.81733502811224       -1.51714951351923
C           -2.12899361027820       -4.32924961772340       -1.46526557529446
C           -0.42071019161114       -2.63696670540805       -2.00464363109700
C           -2.79992887585896       -2.15789188578954       -2.52628585035776
P           -1.03557476973231       -1.06627092657876        0.45197622692712
S           -1.77775206318299       -0.30566680274117        2.32318312879278
S           -0.48220176538080        1.20155552326282        2.77444503129290
C           -1.22295752123528        2.68938951496001        2.12963849276613
C           -0.37247430731598        3.60562341256641        1.52343383767370
C           -0.86585161899236        4.81599297045942        1.07139851778596
C           -2.21189754730260        5.11708975229930        1.21038402178402
C           -3.07051280149537        4.20867596960627        1.80502996566319
C           -2.56814307543861        3.00753712756834        2.27032937378905
F           -3.41229163268514        2.12433764267649        2.83601350580248
N            0.47293604421753       -1.72758747202460        0.72374499525952
C            0.49949928094947       -3.09509707596963        1.23668256034481
C            1.39623271675761       -0.81365736382983        1.33083323485369
C            1.79911430496637       -0.97833151086792        2.67024728161411
C            2.62915203306911       -0.06886816430233        3.25816223627307
C            3.04971532651630        1.08148367665228        2.56157147324544
C            3.83094052145615        2.07684288935351        3.18406243374745
C            4.19704035686364        3.20381553031421        2.50375119761763
C            3.78851184227885        3.38370592410043        1.17367579385409
C            3.04318894979205        2.42957278960311        0.53744908044277
C            2.66555496886555        1.24367198570182        1.20516889685796
C            1.87584883142186        0.23644073039566        0.57915526667412
C            1.59469416629052        0.34738979221984       -0.86268397790930
C            0.30660965955640        0.47509761627765       -1.33448587624294
C            0.06846585784882        0.77176192802930       -2.69237128985062
C            1.10892739590240        0.88501407333572       -3.56732445621054
C            2.43545674174866        0.65886055772924       -3.14773777944993
C            3.51526331205123        0.70696987758633       -4.05306781104484
C            4.79159559570270        0.46533846352320       -3.62891467329068
C            5.03693736292124        0.15433815711426       -2.28316435492583
C            4.01198728041789        0.11091224370165       -1.37904217643326
C            2.68518597598335        0.37740953944922       -1.77944732599544
N           -0.78964747947215        0.32337515842264       -0.43775214652396
C           -1.96484332450128        1.15506911464687       -0.66774290171960
H           -2.53023146804758       -4.12720117181443        1.70235151155343
H           -2.67746891441727       -2.57722875964938        2.54551810264690
H           -4.10913562289846       -3.54431801800715        2.22158811474915
H           -3.83043640857996       -3.25991996749329       -0.18277737523673
H           -4.34022921784997       -0.78097732102198       -0.31116432714489
H           -5.31995329225384       -1.74378700937092        0.78857818872182
H           -4.06316518427616       -0.71093030963634        1.43827296558838
H           -1.65027109588329       -4.80037688876577       -2.31945607230357
H           -1.71835868290304       -4.77582997149237       -0.56367709985841
H           -3.18696693029813       -4.56919976732124       -1.51948179718065
H            0.28103656775546       -3.24306336929134       -1.44085995299072
H           -0.36756876181230       -2.95469692992816       -3.04384848619708
H           -0.09799009728112       -1.60245510614306       -1.97068549043868
H           -3.83493376535508       -2.20572746933269       -2.19994616893671
H           -2.72560592736009       -2.67027072790013       -3.48166745782506
H           -2.52718218199730       -1.11661144335432       -2.67886546886513
H            0.67395221508025        3.35977346614782        1.42281454036827
H           -0.19617488742651        5.52378738378380        0.60944906689284
H           -2.59627721995657        6.06085987970010        0.85802572556753
H           -4.12059277606288        4.41871474243211        1.93055008073347
H            0.13483804360673       -3.17976017809912        2.26301227992717
H            1.52813186501122       -3.45087499097437        1.19344974886175
H           -0.12196214321984       -3.72448473887737        0.60610464963448
H            1.44984175700328       -1.82217678491606        3.24181382060439
H            2.94699635791777       -0.20698469359780        4.27997070664346
H            4.12456365198167        1.93290707980764        4.21292130012089
H            4.79254139199507        3.96425384175361        2.98455413568376
H            4.06497047097575        4.28726806538570        0.65178050626911
H            2.72738379773834        2.58541600115275       -0.48302804102174
H           -0.94065036630723        0.91383619536321       -3.04370132605712
H            0.92196009096923        1.12969362710081       -4.60171539324796
H            3.31036010423435        0.93139541555410       -5.08920448797794
H            5.61512072934933        0.50236758186813       -4.32506543232974
H            6.04611653799644       -0.05576837871260       -1.96358266494385
H            4.21224248594011       -0.14080637371645       -0.34900627273327
H           -1.64215439692156        2.18575996524599       -0.81680187449910
H           -2.55166417958996        0.83860549421052       -1.53305656297090
H           -2.61593854378640        1.11339066769244        0.20484321003595
