78
 energy: -113.237326120036 gnorm: 0.132458413647 xtb: 6.7.1 (edcfbbe)
C            6.47838800000000       -1.12870700000000        0.60018700000000
O            5.12951100000000       -1.03754800000000        1.03408400000000
C            4.21563400000000       -1.89632000000000        0.47786700000000
C            4.52693900000000       -2.83947200000000       -0.51125800000000
C            3.54357400000000       -3.69608700000000       -1.01486800000000
C            2.24155900000000       -3.62398500000000       -0.53285000000000
C            1.91922000000000       -2.68869900000000        0.44856100000000
C            2.89041200000000       -1.80923000000000        0.94997600000000
S            2.37334000000000       -0.65729000000000        2.21804900000000
S            2.48988100000000        1.17482900000000        1.30395900000000
P            0.64930400000000        1.42003300000000        0.30906400000000
N            0.44589300000000        2.83113700000000       -0.53952400000000
C           -0.92223400000000        3.26270300000000       -0.84469600000000
C            1.46903200000000        3.87420000000000       -0.82080300000000
C            1.00984800000000        4.96249300000000       -1.83768800000000
C            2.73622700000000        3.27232700000000       -1.46209300000000
C            1.82596800000000        4.61891900000000        0.47925500000000
N            0.31989200000000        0.20720900000000       -0.76744300000000
C            1.37051300000000       -0.01573200000000       -1.75548200000000
C           -1.00570000000000       -0.00441200000000       -1.24955500000000
C           -1.32972600000000        0.24730900000000       -2.59683200000000
C           -2.62167100000000        0.08521800000000       -3.08365400000000
C           -3.65254200000000       -0.29460600000000       -2.23227900000000
C           -4.96087400000000       -0.39678100000000       -2.73838300000000
C           -6.02876000000000       -0.72426000000000       -1.90845100000000
C           -5.80024200000000       -0.93809800000000       -0.55911300000000
C           -4.50083700000000       -0.84513100000000       -0.05156200000000
C           -3.37470400000000       -0.55426100000000       -0.86699000000000
C           -2.01648600000000       -0.47389400000000       -0.36636200000000
C           -1.67183800000000       -0.88517200000000        0.96484600000000
C           -1.05114800000000        0.03403800000000        1.85728500000000
C           -0.90653100000000       -0.32057900000000        3.21255000000000
C           -1.28941400000000       -1.56841300000000        3.69210400000000
C           -1.80414300000000       -2.52701600000000        2.82782700000000
C           -2.12245600000000       -3.80313600000000        3.32521300000000
C           -2.59660400000000       -4.80460200000000        2.48329400000000
C           -2.74489800000000       -4.54315300000000        1.13122200000000
C           -2.43600200000000       -3.27439900000000        0.63206300000000
C           -1.98486300000000       -2.21109400000000        1.45883600000000
N           -0.60995500000000        1.30634900000000        1.38452500000000
C           -0.63106900000000        2.37670300000000        2.37933800000000
H            7.05963000000000       -0.38924900000000        1.15987800000000
H            6.89930000000000       -2.11570200000000        0.81815700000000
H            6.56776100000000       -0.88505700000000       -0.46364900000000
H            5.53122200000000       -2.93825700000000       -0.90943900000000
H            3.79897600000000       -4.42592600000000       -1.77912400000000
H            1.47352300000000       -4.29084600000000       -0.91612800000000
H            0.89560300000000       -2.63957600000000        0.81304500000000
H           -1.06724500000000        3.39260100000000       -1.92148300000000
H           -1.67943500000000        2.54020400000000       -0.53207700000000
H           -1.17430000000000        4.19102100000000       -0.32165100000000
H            0.17223000000000        5.56099800000000       -1.46330900000000
H            1.82129800000000        5.67111400000000       -2.04720500000000
H            0.72134500000000        4.51740200000000       -2.79723100000000
H            3.25035000000000        2.55061200000000       -0.83171200000000
H            3.47238700000000        4.05581200000000       -1.68273900000000
H            2.50140000000000        2.78017600000000       -2.41179100000000
H            2.57308700000000        5.39948900000000        0.29141800000000
H            0.94529300000000        5.10979300000000        0.90919800000000
H            2.24135900000000        3.96274400000000        1.24543200000000
H            1.22771300000000       -0.97015100000000       -2.27589800000000
H            1.41264400000000        0.78757500000000       -2.49666200000000
H            2.35649600000000       -0.06424900000000       -1.28915400000000
H           -0.58246400000000        0.61306800000000       -3.29377500000000
H           -2.81536200000000        0.30061100000000       -4.13186600000000
H           -5.16035800000000       -0.20799800000000       -3.79125800000000
H           -7.03483900000000       -0.79539900000000       -2.31199400000000
H           -6.62559600000000       -1.17342400000000        0.10748100000000
H           -4.37624900000000       -0.99483600000000        1.01975700000000
H           -0.44605200000000        0.35845400000000        3.92370300000000
H           -1.13590100000000       -1.79186400000000        4.74516600000000
H           -1.99059500000000       -4.03099000000000        4.38113000000000
H           -2.83480300000000       -5.78712600000000        2.88150300000000
H           -3.09584800000000       -5.31922800000000        0.45659700000000
H           -2.54269600000000       -3.12466100000000       -0.44112600000000
H            0.21527000000000        2.31119200000000        3.07102900000000
H           -0.58147200000000        3.35928200000000        1.90346000000000
H           -1.56610900000000        2.37099900000000        2.95209500000000
78
 energy: -113.256036341166 gnorm: 0.057304885238 xtb: 6.7.1 (edcfbbe)
C            6.46732770272669       -1.12616476172363        0.60195965653952
O            5.11723530360097       -1.03741809531058        1.02192489595929
C            4.21446639157115       -1.89992107268969        0.47759796598924
C            4.52000901639976       -2.83999715194137       -0.50657042177401
C            3.54075005042142       -3.68812086528143       -1.00435587039976
C            2.24105033505837       -3.61798146073992       -0.52866959638106
C            1.91705630771548       -2.68067442376742        0.43719179325275
C            2.88648645732220       -1.81422457292358        0.93043332653238
S            2.37064734581303       -0.64303642206215        2.17514520776185
S            2.50857871084794        1.17900718554911        1.22457131307596
P            0.60563672533306        1.42652810250434        0.28546218328276
N            0.44702655600144        2.85847336764588       -0.55317525920100
C           -0.92751787128044        3.26494508879491       -0.83941100050915
C            1.48681487694025        3.89395581761635       -0.81547402802737
C            0.99652486605146        4.95023864652527       -1.83143967194840
C            2.73453142308614        3.26061656553162       -1.44618563025615
C            1.83411250743407        4.61945783282999        0.48773901625958
N            0.30833249447128        0.18069785213423       -0.77602651237271
C            1.37043979977609       -0.02745036601796       -1.75647628339408
C           -1.02607681144844       -0.01104252182952       -1.25077075859937
C           -1.33398805739481        0.25975371574427       -2.59375423391530
C           -2.60555336608637        0.09178932105036       -3.08233870209567
C           -3.65063305402958       -0.29591501525840       -2.23423288025230
C           -4.96314315356696       -0.39799074813081       -2.73314692983124
C           -6.01068349058917       -0.72338203568915       -1.90522288400592
C           -5.76830999714500       -0.93687785770813       -0.54890245990415
C           -4.48570250401756       -0.85537161198036       -0.04210933429204
C           -3.37367067186574       -0.56327614802173       -0.86483575190623
C           -2.01976569341026       -0.48114388799656       -0.38148119287701
C           -1.67665490922383       -0.88711792137661        0.97735160702531
C           -1.05234951367687        0.01405957536532        1.85371344810892
C           -0.88434052664408       -0.32876235092383        3.20605610323122
C           -1.27494888885220       -1.55298473874097        3.68940039605743
C           -1.80156992323152       -2.52477335247067        2.82932591299847
C           -2.12312074159631       -3.80464433878898        3.32003885354302
C           -2.59278544298703       -4.78625728510996        2.48039790926864
C           -2.73746822267396       -4.51128727209777        1.12117406271906
C           -2.44153581704575       -3.25745235834658        0.62215756630499
C           -1.98999702351640       -2.20829543072472        1.45583454682185
N           -0.63863129406960        1.30379000235817        1.38477661698009
C           -0.63605829965879        2.37677187562809        2.37857198206527
H            7.02514923868354       -0.38222074347533        1.17335300602938
H            6.88656965903648       -2.11334947592616        0.81470479901567
H            6.56471411623957       -0.89413968677593       -0.46248961502291
H            5.52254594019868       -2.93226101354540       -0.89615322226231
H            3.79942550705550       -4.41241699116404       -1.76470950069900
H            1.47945026168118       -4.28537244397568       -0.90613600287599
H            0.90416625184534       -2.62711261983235        0.81464732669880
H           -1.06191500350950        3.39615911291657       -1.91334200825402
H           -1.64807142710288        2.50926466180091       -0.51738682250517
H           -1.17747584523586        4.19537987667780       -0.32553337800902
H            0.16678346635728        5.54735307547213       -1.45927803293200
H            1.81767868293121        5.63949981942044       -2.02702615361862
H            0.71665124696181        4.50427073527785       -2.78507072998851
H            3.22431769902875        2.53593269262664       -0.79880976472404
H            3.46042868823343        4.04473342798818       -1.66343291703906
H            2.48774267608267        2.77972773756629       -2.39363679395405
H            2.57521916502682        5.39369609265174        0.29524936213501
H            0.94901100578113        5.10345630875873        0.90330961304908
H            2.24160566634924        3.93934835996801        1.23560518382705
H            1.21627361230564       -0.97860367071188       -2.26798099643810
H            1.41376265516478        0.77366064911439       -2.50009356338665
H            2.34439090029679       -0.06873219610645       -1.26330398993979
H           -0.57427685057692        0.60643902651676       -3.27913264356782
H           -2.80059166525485        0.29349499323764       -4.12666292097708
H           -5.15298685178635       -0.20696333816372       -3.78100565931222
H           -7.01477376061503       -0.79642058869808       -2.30253679340037
H           -6.59150424119117       -1.16681721792420        0.11425243345315
H           -4.35039710052656       -1.00643904160580        1.02087293396298
H           -0.44307518102553        0.36640452310543        3.90566196003021
H           -1.13987191798940       -1.77344202620393        4.73923023572001
H           -1.98804745700228       -4.02348321562063        4.37088455076408
H           -2.83285997593248       -5.76647240890374        2.87186114544657
H           -3.08373605825384       -5.28600720891364        0.45006158304755
H           -2.54880323969341       -3.09683423189361       -0.44280928336487
H            0.20905018915442        2.31266234554697        3.07148271118886
H           -0.58283879028184        3.34693113923210        1.88100437475946
H           -1.56623185899646        2.35015065993648        2.94810161130942
78
 energy: -113.261992760778 gnorm: 0.012409431968 xtb: 6.7.1 (edcfbbe)
C            6.44943911573446       -1.11818035058629        0.60685776854575
O            5.09592275082658       -1.02664467688478        1.00696555321084
C            4.20536308171148       -1.89012695245307        0.46900692327346
C            4.51052564892841       -2.83896073842715       -0.50422286406641
C            3.53447753203555       -3.68527682708601       -0.99623116512724
C            2.23384435369297       -3.61704836919314       -0.52674355033043
C            1.90717413057302       -2.67408808812625        0.42798829924833
C            2.87470032223979       -1.80851064598635        0.90814660154866
S            2.37390074031253       -0.62537304485343        2.14293333712615
S            2.49358473768114        1.17031271504939        1.15661070280381
P            0.57420637663756        1.42763416030366        0.26043024659126
N            0.44345452270702        2.87185638853973       -0.56729204167471
C           -0.94038497993922        3.25890772361018       -0.83675419576441
C            1.49212031413843        3.90437874475404       -0.81185081628582
C            0.99951989281409        4.94670176278587       -1.82370719076569
C            2.73095484659428        3.25610609234999       -1.42982471404773
C            1.83837942449662        4.61612985879590        0.49355189607885
N            0.30721861309658        0.14649873293752       -0.77877033596387
C            1.37262922739582       -0.05266098907969       -1.75727228021345
C           -1.03521745577038       -0.02040161125286       -1.25109677615293
C           -1.33041189454555        0.26350964752657       -2.59516939714745
C           -2.59124219910183        0.09682369468468       -3.08207300588583
C           -3.64352933369881       -0.29581122407287       -2.23367040301700
C           -4.96069007867595       -0.40013198221763       -2.72387623102239
C           -5.99198338039225       -0.72565438547618       -1.89214081985060
C           -5.73579127347882       -0.94184899486177       -0.53085693652203
C           -4.46384780871411       -0.86663915671972       -0.02928210120653
C           -3.36524243058354       -0.56670462636758       -0.86317319973191
C           -2.01510479038864       -0.48370258727696       -0.39396009798867
C           -1.67144751945000       -0.88415327331904        0.98576271216328
C           -1.04914560928058        0.00251842990319        1.84704800181423
C           -0.86622853441039       -0.32716807543528        3.20145615480248
C           -1.25893244289888       -1.53797469982275        3.68581561942630
C           -1.79425834235741       -2.51725586928386        2.82782183682940
C           -2.12188620843697       -3.80022966302355        3.31113468889505
C           -2.59045876756596       -4.76592803664273        2.46854940834013
C           -2.73514539360298       -4.47787028229583        1.10410720960315
C           -2.44605036851725       -3.23428004042363        0.60919681833463
C           -1.98649111975949       -2.19997181921640        1.45307397831103
N           -0.65459975020013        1.30328993114084        1.38090104403375
C           -0.64262196477758        2.37896171824127        2.37296300519769
H            6.98463570555370       -0.37074486031741        1.19016253378778
H            6.86559362561116       -2.10595101368786        0.82126344664116
H            6.56243920912670       -0.89520894877502       -0.45808784622120
H            5.51575911966856       -2.92872045860232       -0.88066285464650
H            3.79860350702775       -4.40781490669004       -1.75200664518965
H            1.47817859137140       -4.28750151055923       -0.90062508764952
H            0.90005503062595       -2.60572142390715        0.80965197755100
H           -1.08467991643631        3.39491438751939       -1.90712201950042
H           -1.62478095579777        2.47643165776860       -0.50304806498438
H           -1.19965566934052        4.18631831521770       -0.32520177857116
H            0.16876490866672        5.53415181394915       -1.45090146873293
H            1.81873990615487        5.63187825464322       -2.02123306377272
H            0.71905408501841        4.48880419661740       -2.76695607796713
H            3.19229926292933        2.52967280318719       -0.76590695730827
H            3.46427725777444        4.02908196929697       -1.64171308399654
H            2.47658008997995        2.77488739913003       -2.37102045382290
H            2.58111216738694        5.38514911864388        0.30873187085141
H            0.95461620192279        5.09578578244146        0.90773674645881
H            2.23973789376783        3.91545783862070        1.22353072924577
H            1.20965792620585       -1.00206944500933       -2.26207417262511
H            1.42208455643022        0.74769834851599       -2.50060995913437
H            2.33325330106119       -0.09037365393822       -1.24170597515477
H           -0.55936082812643        0.60731747700089       -3.26435646518703
H           -2.79666367528206        0.29080225472528       -4.12289797391977
H           -5.14112420135973       -0.20571704884025       -3.77005044703301
H           -6.99759947695094       -0.79997372727306       -2.27741425388804
H           -6.55873021929287       -1.16531749477852        0.13047855228104
H           -4.30977603287541       -1.02498228900494        1.02666412942188
H           -0.41890203170924        0.37689531818845        3.88270655165744
H           -1.13639519604108       -1.76425676175527        4.73291882619566
H           -1.98267404864399       -4.00989624490914        4.36051679456294
H           -2.83324737469639       -5.74690684792066        2.84817491134487
H           -3.07586488838324       -5.25351443987838        0.43533758119590
H           -2.55706501454298       -3.05469589782987       -0.44900868758873
H            0.20201798569591        2.31640263826644        3.06533501306767
H           -0.58689734419033        3.33682378506771        1.85704430850235
H           -1.57074644338006        2.33985902463803        2.93999268071627
78
 energy: -113.263707844428 gnorm: 0.011404356496 xtb: 6.7.1 (edcfbbe)
C            6.42691562685549       -1.10296635075632        0.61580981237449
O            5.06807749289644       -1.00842641633051        0.99596655182487
C            4.18717100262998       -1.87927554405201        0.46204319348721
C            4.49821939075274       -2.83807720245557       -0.50129730442023
C            3.52474455709361       -3.68892791745889       -0.99045777828866
C            2.22050084609188       -3.61874781090344       -0.52942089718528
C            1.88762300281764       -2.66688310056152        0.41541308489706
C            2.85344384352984       -1.79761398031628        0.89170248133497
S            2.35323213370119       -0.59684466034465        2.10980859942534
S            2.50444654774944        1.19089855995986        1.11707005838788
P            0.57349372921878        1.42586885882645        0.24588314486609
N            0.44004406565389        2.87116130751814       -0.57434614582809
C           -0.94997071973563        3.24990626039767       -0.83706238080934
C            1.48915197828366        3.90398851786154       -0.80745239036421
C            0.99564281208897        4.94327567407577       -1.81840700962493
C            2.72742413595176        3.24690532747534       -1.41452576977050
C            1.83555903358061        4.60470063590623        0.50429435876003
N            0.31734099435712        0.12790819362058       -0.77884845019877
C            1.38090530621084       -0.08224077339944       -1.75587917187694
C           -1.02705877232834       -0.02319905660969       -1.25504175175846
C           -1.32148534728441        0.26562008055603       -2.60010650180438
C           -2.58436895715067        0.10123107140193       -3.08237124422461
C           -3.63458154931752       -0.29347141315674       -2.22990071473589
C           -4.95503609349102       -0.40080181764128       -2.71224820600409
C           -5.97959029984169       -0.72840069084819       -1.87250883493708
C           -5.71557853287583       -0.94752437642682       -0.51131069904062
C           -4.44231258945061       -0.87281165653895       -0.01781702249764
C           -3.35297449208746       -0.56469519050932       -0.86173945247302
C           -2.00409136590515       -0.48043238901818       -0.39853531082988
C           -1.65867578272330       -0.87816876679290        0.98479643282030
C           -1.03594394689183        0.00498834167758        1.84161693575341
C           -0.84517267598665       -0.32242575116288        3.19715808349340
C           -1.24263982418696       -1.53174753918544        3.68114519544238
C           -1.78428000287413       -2.50902370382937        2.82234886126891
C           -2.11780971067165       -3.79313700333807        3.29996308411587
C           -2.58936995508964       -4.75218406268933        2.45098194132901
C           -2.73547161589617       -4.45809088987231        1.08613596698776
C           -2.44489255271747       -3.21456327453557        0.59730128804922
C           -1.97693533827864       -2.19053681700433        1.44967316334167
N           -0.64834238967299        1.30602103775111        1.37375142980343
C           -0.64443972973221        2.38537174854725        2.36117683949880
H            6.94975925148738       -0.35222611124278        1.20492313323764
H            6.83914607648365       -2.09022837178961        0.84116967353169
H            6.55661369463956       -0.88690340125323       -0.44929418393810
H            5.50709574128442       -2.92816496337036       -0.86885993343294
H            3.79522131132625       -4.41746920174996       -1.73838759617671
H            1.46945715038964       -4.29647162059517       -0.89955641955661
H            0.88082855963013       -2.59093698944550        0.79607233393711
H           -1.10711293347636        3.38935876163515       -1.90578693267916
H           -1.61856986794018        2.45696813457533       -0.50017564694139
H           -1.21969604659621        4.17217996320460       -0.32076068255174
H            0.16290296403050        5.52843638489574       -1.44477547780093
H            1.81312315654198        5.62956461244257       -2.01900129419070
H            0.71471298923341        4.47950269157782       -2.75919556378911
H            3.17283070964507        2.51987018378349       -0.74118525364224
H            3.47150523644674        4.01088044758037       -1.62085575043234
H            2.47477172647379        2.76285915520821       -2.35420229105373
H            2.58393549089816        5.37064386029850        0.32693164927345
H            0.95525821627409        5.08623496005946        0.92305946511510
H            2.23406388227513        3.89453840424631        1.22622517746684
H            1.20829327800820       -1.03273699000456       -2.25586548787392
H            1.43976017205360        0.71423992507217       -2.50207264345957
H            2.33648113220527       -0.12744834367620       -1.23492360964358
H           -0.54524648525091        0.60903587130501       -3.26292392506908
H           -2.79919149212931        0.29382030095123       -4.12197063967049
H           -5.13571153926162       -0.20596337928114       -3.75861618734541
H           -6.98841487777550       -0.80593630730365       -2.24734417626072
H           -6.53623914321013       -1.17410847178199        0.15156521579316
H           -4.27141884308167       -1.03884416784292        1.03482954005052
H           -0.38925016825527        0.38458500518923        3.86902616066067
H           -1.12346877123877       -1.76394891310357        4.72765977805060
H           -1.97811325380704       -4.00191577155586        4.34980410072015
H           -2.83742927987155       -5.73477477789426        2.82145950612207
H           -3.08012040727691       -5.23136183138146        0.41690459935088
H           -2.56030945476732       -3.01842938173102       -0.45788837069088
H            0.19853430777332        2.32873538573875        3.05539285094962
H           -0.59254403602510        3.33846512774902        1.83852271490622
H           -1.57437170241065        2.34132035965258        2.92532969644586
78
 energy: -113.265106846226 gnorm: 0.011289001135 xtb: 6.7.1 (edcfbbe)
C            6.39120480702815       -1.07761645074588        0.63012316554929
O            5.02438473369072       -0.98024724113775        0.98112940360876
C            4.15648720710786       -1.86400319838993        0.45152312586672
C            4.47740711835241       -2.83427459288704       -0.49882929399531
C            3.50879132507019       -3.69458662831166       -0.98248201916863
C            2.19992209542165       -3.62204173228704       -0.53299702028741
C            1.85749265266601       -2.66042352830807        0.39957077187947
C            2.82075439338082       -1.78713826870771        0.87470057305121
S            2.33160240276376       -0.60210327596822        2.11011131547823
S            2.49431819188356        1.17450345586681        1.10558798458114
P            0.58083760577302        1.42621768785868        0.22538004289344
N            0.43283193188819        2.87062685708284       -0.58311145527845
C           -0.96325238015010        3.23909588952970       -0.84039743038255
C            1.48259371820038        3.90247051864856       -0.80314035875405
C            0.98860485877516        4.94173783181344       -1.81106310215205
C            2.72165945935360        3.24425829651154       -1.40626064249334
C            1.82808920079942        4.58993335611968        0.51703700230513
N            0.33482583003703        0.11034337400272       -0.78094592517227
C            1.39627530514289       -0.12575098321899       -1.75363868379605
C           -1.01084819786485       -0.02274563456858       -1.26239872371619
C           -1.30888901892085        0.26963546594459       -2.60731304862828
C           -2.57688622694822        0.10920445759836       -3.08072197973721
C           -3.62238484427051       -0.28680078394474       -2.22163512492184
C           -4.94708574213943       -0.39960210050493       -2.69290725382185
C           -5.96272710153276       -0.73222869121866       -1.84247057376973
C           -5.68937117597500       -0.95529191574832       -0.48309602305889
C           -4.41264646579337       -0.87618251381759       -0.00079861020411
C           -3.33506377557273       -0.55788825952258       -0.85725132658196
C           -1.98604862568635       -0.47281237929979       -0.40211423314758
C           -1.63622521342063       -0.86966396698708        0.97977949631092
C           -1.01129344118034        0.01104855336375        1.83428627086850
C           -0.81327776685653       -0.31773136153631        3.19002014789521
C           -1.21592983178655       -1.52712115622156        3.67212143675941
C           -1.76593721073335       -2.49958731264290        2.81188402745038
C           -2.10886699886546       -3.78430760736340        3.28236310138995
C           -2.58716143991914       -4.73471931378271        2.42567364495730
C           -2.73561547717607       -4.43470720616821        1.06178640232743
C           -2.43764522325725       -3.19070726413542        0.58049911319810
C           -1.95889710424661       -2.17903270037659        1.44249797783649
N           -0.63023144123564        1.31007838548271        1.36249348368993
C           -0.64383867457180        2.39583775879985        2.34171457254548
H            6.89908464628869       -0.32154000313768        1.22505757748238
H            6.79773855835975       -2.06347010857298        0.87312435250199
H            6.54422954343329       -0.87088591681137       -0.43438801052989
H            5.49074800228852       -2.92509414394404       -0.85550132546781
H            3.78788888021449       -4.43288442239060       -1.71857604821244
H            1.45456331444023       -4.30818711296218       -0.90034102804144
H            0.84946215440071       -2.57730499000881        0.77586667556114
H           -1.13227746249825        3.38277799556155       -1.90738729632081
H           -1.61685370284644        2.43561499693042       -0.50353722957589
H           -1.24419186461427        4.15449290536158       -0.31663917895712
H            0.15375523835694        5.52368725953616       -1.43444722895115
H            1.80372657360506        5.63032705578071       -2.01533812826764
H            0.70565728604719        4.47342809417747       -2.74989374372942
H            3.15991558117155        2.51990221944104       -0.72929685378319
H            3.47403472446532        4.00148090616431       -1.60738172492198
H            2.47154546050261        2.75553816531570       -2.34420944049871
H            2.58398216584106        5.35226122551427        0.35001887824978
H            0.95174632699026        5.07371727673928        0.94210583792556
H            2.22225370726505        3.86960810265425        1.23076898726138
H            1.20636565857526       -1.07870255095885       -2.24492612670661
H            1.47154541821236        0.66183246865097       -2.50753088628471
H            2.34816688834428       -0.18685039499843       -1.22999962857165
H           -0.52866699356340        0.61070809232314       -3.26662280607414
H           -2.80292573284808        0.30210794599922       -4.11859940676138
H           -5.13338505138253       -0.20622278837117       -3.73902026389865
H           -6.97592737230192       -0.81448285141630       -2.20408876722371