79
 energy: -117.685385060930 gnorm: 0.000025402577 xtb: 6.7.1 (edcfbbe)
C            7.26297263878192       -2.36828614802106        1.56223201128941
O            5.89953681955983       -2.56932272751135        1.86721932442988
C            4.96114804931378       -2.15358080333819        0.99652952472505
C            3.63692138636518       -2.42535033133417        1.35416114339598
C            2.58265151053633       -2.04505839927937        0.55081640026001
C            1.17639899322571       -2.37499516570748        0.94267772321642
C            2.86547368590668       -1.36468215694429       -0.63868389665280
S            1.51431670010172       -0.91697178284950       -1.71318339198855
Se           1.48942324262033        1.26442746779531       -1.66670342472756
P           -0.29456933446861        1.82928085644812       -0.36946676907283
N           -0.46677661520984        3.37867573021025        0.14826183957319
C           -0.91249033398624        4.34171675072756       -0.87565019884008
C           -1.77039648694684        5.43037776197505       -0.24037932102853
C            0.25355582122913        4.91808427555151       -1.67214822929832
C            0.39234881748484        3.89183063202730        1.23021667820285
C           -0.32676514168393        3.74221198916572        2.56608989948037
C            1.75988586631730        3.22237067368001        1.25817961922972
O           -0.29498664017609        0.77075735560896        0.80660609020198
C           -1.48408536535179        0.15883934576958        1.28743482273737
C           -1.71009765628659        0.24202172163920        2.66718761358206
C           -2.82004223714450       -0.34170514131157        3.20668196638692
C           -3.76746915227109       -0.98310654063173        2.38327107466178
C           -4.95692943197158       -1.52372180612863        2.91517356770061
C           -5.88096371357283       -2.11460607278585        2.10002202135245
C           -5.65861929131591       -2.17667017195991        0.71638222518772
C           -4.50796266199495       -1.67710966947339        0.17119809268962
C           -3.52093121795386       -1.08568801807252        0.98804984194856
C           -2.31096896053974       -0.55347547232410        0.45089762011137
C           -1.96596028650944       -0.76740889353080       -0.96749424416806
C           -1.69283026117956        0.30973633675812       -1.77506415599090
C           -1.44084277844270        0.18993309631271       -3.14662809987381
C           -1.44363487755362       -1.05237905547500       -3.71569751572030
C           -1.63312634403850       -2.20512229478905       -2.92551244121931
C           -1.55093637468621       -3.49666904602740       -3.48742701014096
C           -1.68223594016846       -4.60967615031305       -2.70570124338230
C           -1.89065105763346       -4.47822429206357       -1.32454915046139
C           -1.99367744280132       -3.24152327359147       -0.74977495614489
C           -1.88903984430754       -2.07269670007668       -1.53332666962865
O           -1.62486207791078        1.60095612046967       -1.19516907612423
C            4.17844402030197       -1.10934546566298       -1.03822685604390
C            4.48041199021722       -0.42634884789100       -2.33408417990911
C            5.21649051731862       -1.49891314012523       -0.20550320084398
H            7.50065685074646       -1.30412282304761        1.47499603852087
H            7.81486862684338       -2.79314934484747        2.39834988882475
H            7.54632276046724       -2.88587334922103        0.64146938446007
H            3.46076217358633       -2.95372555254639        2.27731519189303
H            0.60911140831850       -1.46552802547802        1.12877973238164
H            1.16554776221240       -2.97675623086494        1.84648951334137
H            0.67585204802020       -2.92555671774724        0.14713474188065
H           -1.55257911549833        3.77646784112519       -1.55755830448282
H           -1.18842796739371        6.08549028488149        0.40159468592683
H           -2.57147988850825        4.98477744990117        0.34308392601580
H           -2.21390371097586        6.03518788793821       -1.02634193265327
H            0.89897412073233        5.53585997492503       -1.05282054373787
H           -0.12847636877040        5.53527253465347       -2.48048722228652
H            0.85216400620144        4.11455765283486       -2.10683968507122
H            0.53922344530129        4.95673634503869        1.03626867240010
H           -0.42285390786357        2.69440174902022        2.82956956325185
H            0.23663273707879        4.24641243434074        3.34666861077014
H           -1.31954501836071        4.18025445654201        2.51661436486634
H            1.66818296254449        2.15167763490061        1.43960749432239
H            2.28870971742119        3.38157607125900        0.31856792329442
H            2.35759571604009        3.64941686197852        2.05989310435265
H           -0.98490451781273        0.74129156720521        3.28911371619352
H           -2.99171282522022       -0.29901285669406        4.27093313904681
H           -5.12576524090536       -1.44998493469709        3.97887719772347
H           -6.79038235445871       -2.52393762135903        2.51158585127064
H           -6.40759712137680       -2.61958497000097        0.07823578496933
H           -4.35661408864275       -1.71840079330712       -0.89616002508435
H           -1.26049328578360        1.08321562815773       -3.72459989034111
H           -1.26727921334047       -1.16572847425665       -4.77373345997460
H           -1.37034004694727       -3.58596702942865       -4.54787398382668
H           -1.61508935775443       -5.59438041735085       -3.14145445826935
H           -1.96662341069801       -5.36392962763214       -0.71266671020194
H           -2.14438536857334       -3.15214126947188        0.31491706430839
H            3.96399970237744       -0.92096503053691       -3.15574278945352
H            4.14583249311056        0.61641297262757       -2.31293684462437
H            5.54770212921656       -0.43527372604637       -2.53389469498253
H            6.22818761543562       -1.29357309958173       -0.51586911347058
