      -----------------------------------------------------------      
     |                   =====================                   |     
     |                           x T B                           |     
     |                   =====================                   |     
     |                         S. Grimme                         |     
     |          Mulliken Center for Theoretical Chemistry        |     
     |                    University of Bonn                     |     
      -----------------------------------------------------------      

   * xtb version 6.7.1 (edcfbbe) compiled by 'conda@3ef47c1a292c' on 2024-11-25

   xtb is free software: you can redistribute it and/or modify it under
   the terms of the GNU Lesser General Public License as published by
   the Free Software Foundation, either version 3 of the License, or
   (at your option) any later version.
   
   xtb is distributed in the hope that it will be useful,
   but WITHOUT ANY WARRANTY; without even the implied warranty of
   MERCHANTABILITY or FITNESS FOR A PARTICULAR PURPOSE.  See the
   GNU Lesser General Public License for more details.
   
   Cite this work as:
   * C. Bannwarth, E. Caldeweyher, S. Ehlert, A. Hansen, P. Pracht,
     J. Seibert, S. Spicher, S. Grimme, WIREs Comput. Mol. Sci., 2020, 11,
     e01493. DOI: 10.1002/wcms.1493
   
   for GFN2-xTB:
   * C. Bannwarth, S. Ehlert and S. Grimme., J. Chem. Theory Comput., 2019,
     15, 1652-1671. DOI: 10.1021/acs.jctc.8b01176
   for GFN1-xTB:
   * S. Grimme, C. Bannwarth, P. Shushkov, J. Chem. Theory Comput., 2017,
     13, 1989-2009. DOI: 10.1021/acs.jctc.7b00118
   for GFN0-xTB:
   * P. Pracht, E. Caldeweyher, S. Ehlert, S. Grimme, ChemRxiv, 2019, preprint.
     DOI: 10.26434/chemrxiv.8326202.v1
   for GFN-FF:
   * S. Spicher and S. Grimme, Angew. Chem. Int. Ed., 2020, 59, 15665-15673.
     DOI: 10.1002/anie.202004239
   
   for ALPB and GBSA implicit solvation:
   * S. Ehlert, M. Stahn, S. Spicher, S. Grimme, J. Chem. Theory Comput.,
     2021, 17, 4250-4261. DOI: 10.1021/acs.jctc.1c00471
   
   for ddCOSMO and CPCM-X implicit solvation:
   * M. Stahn, S. Ehlert, S. Grimme, J. Phys. Chem. A,
     2023, XX, XXXX-XXXX. DOI: 10.1021/acs.jpca.3c04382
   
   for DFT-D4:
   * E. Caldeweyher, C. Bannwarth and S. Grimme, J. Chem. Phys., 2017,
     147, 034112. DOI: 10.1063/1.4993215
   * E. Caldeweyher, S. Ehlert, A. Hansen, H. Neugebauer, S. Spicher,
     C. Bannwarth and S. Grimme, J. Chem. Phys., 2019, 150, 154122.
     DOI: 10.1063/1.5090222
   * E. Caldeweyher, J.-M. Mewes, S. Ehlert and S. Grimme, Phys. Chem. Chem. Phys.
     2020, 22, 8499-8512. DOI: 10.1039/D0CP00502A
   
   for sTDA-xTB:
   * S. Grimme and C. Bannwarth, J. Chem. Phys., 2016, 145, 054103.
     DOI: 10.1063/1.4959605
   
   in the mass-spec context:
   * V. Asgeirsson, C. Bauer and S. Grimme, Chem. Sci., 2017, 8, 4879.
     DOI: 10.1039/c7sc00601b
   * J. Koopman and S. Grimme, ACS Omega 2019, 4, 12, 15120-15133.
     DOI: 10.1021/acsomega.9b02011
   
   for metadynamics refer to:
   * S. Grimme, J. Chem. Theory Comput., 2019, 155, 2847-2862
     DOI: 10.1021/acs.jctc.9b00143
   
   for SPH calculations refer to:
   * S. Spicher and S. Grimme, J. Chem. Theory Comput., 2021, 17, 1701-1714
     DOI: 10.1021/acs.jctc.0c01306
   
   for ONIOM refer to:
   * C. Plett, A. Katbashev, S. Ehlert, S. Grimme, M. Bursch,
     Phys. Chem. Chem. Phys., 2023, 25, 17860-17868. DOI: 10.1039/D3CP02178E
   
   for DIPRO refer to:
   * J. Kohn, N. Gildemeister, S. Grimme, D. Fazzi, A. Hansen,
     J. Chem. Phys., 2023, just accepted.
   
   for PTB refer to:
   * S. Grimme, M. Mueller, A. Hansen, J. Chem. Phys., 2023, 158, 124111.
     DOI: 10.1063/5.0137838
   
   with help from (in alphabetical order)
   P. Atkinson, C. Bannwarth, F. Bohle, G. Brandenburg, E. Caldeweyher
   M. Checinski, S. Dohm, S. Ehlert, S. Ehrlich, I. Gerasimov, C. Hölzer
   A. Katbashev, J. Kohn, J. Koopman, C. Lavigne, S. Lehtola, F. März, M. Müller,
   F. Musil, H. Neugebauer, J. Pisarek, C. Plett, P. Pracht, F. Pultar,
   J. Seibert, P. Shushkov, S. Spicher, M. Stahn, M. Steiner, T. Strunk,
   J. Stückrath, T. Rose, and J. Unsleber
   
 * started run on 2024/12/16 at 17:15:31.636     
   ID    Z sym.   atoms
    1    6 C      1-4, 6-9, 13-24, 26-46, 48
    2    7 N      5, 25, 47
    3   15 P      10
    4   16 S      11, 12
    5    1 H      49-101

           -------------------------------------------------
          |                Calculation Setup                |
           -------------------------------------------------

          program call               : xtb --gfn2 --opt extreme -P 8 --charge 1 molecule.xyz
          hostname                   : node05
          coordinate file            : molecule.xyz
          omp threads                :                     8


           -------------------------------------------------
          |                 G F N 2 - x T B                 |
           -------------------------------------------------

        Reference                      10.1021/acs.jctc.8b01176
      * Hamiltonian:
        H0-scaling (s, p, d)           1.850000    2.230000    2.230000
        zeta-weighting                 0.500000
      * Dispersion:
        s8                             2.700000
        a1                             0.520000
        a2                             5.000000
        s9                             5.000000
      * Repulsion:
        kExp                           1.500000    1.000000
        rExp                           1.000000
      * Coulomb:
        alpha                          2.000000
        third order                    shell-resolved
        anisotropic                    true
        a3                             3.000000
        a5                             4.000000
        cn-shift                       1.200000
        cn-exp                         4.000000
        max-rad                        5.000000


          ...................................................
          :                      SETUP                      :
          :.................................................:
          :  # basis functions                 263          :
          :  # atomic orbitals                 260          :
          :  # shells                          152          :
          :  # electrons                       252          :
          :  max. iterations                   250          :
          :  Hamiltonian                  GFN2-xTB          :
          :  restarted?                      false          :
          :  GBSA solvation                  false          :
          :  PC potential                    false          :
          :  electronic temp.          300.0000000     K    :
          :  accuracy                    1.0000000          :
          :  -> integral cutoff          0.2500000E+02      :
          :  -> integral neglect         0.1000000E-07      :
          :  -> SCF convergence          0.1000000E-05 Eh   :
          :  -> wf. convergence          0.1000000E-03 e    :
          :  Broyden damping             0.4000000          :
          :  net charge                          1          :
          :  unpaired electrons                  0          :
          ...................................................

 iter      E             dE          RMSdq      gap      omega  full diag
   1   -136.3204222 -0.136320E+03  0.393E+00    1.68       0.0  T
   2   -136.5140778 -0.193656E+00  0.239E+00    2.12       1.0  T
   3   -136.5008911  0.131867E-01  0.117E+00    2.03       1.0  T
   4   -136.5136295 -0.127385E-01  0.604E-01    1.79       1.0  T
   5   -136.5408242 -0.271946E-01  0.260E-01    1.91       1.0  T
   6   -136.5435066 -0.268239E-02  0.141E-01    1.87       1.0  T
   7   -136.5452583 -0.175171E-02  0.452E-02    1.89       1.0  T
   8   -136.5453060 -0.476989E-04  0.201E-02    1.89       1.0  T
   9   -136.5453115 -0.551396E-05  0.100E-02    1.89       1.0  T
  10   -136.5453131 -0.161845E-05  0.557E-03    1.89       1.8  T
  11   -136.5453138 -0.685408E-06  0.303E-03    1.89       3.3  T
  12   -136.5453139 -0.158448E-06  0.199E-03    1.89       5.0  T
  13   -136.5453140 -0.695539E-07  0.105E-03    1.89       9.5  T
  14   -136.5453140 -0.258668E-07  0.491E-04    1.89      20.3  T
  15   -136.5453140 -0.239331E-08  0.273E-04    1.89      36.4  T

   *** convergence criteria satisfied after 15 iterations ***

         #    Occupation            Energy/Eh            Energy/eV
      -------------------------------------------------------------
         1        2.0000           -0.8550528             -23.2672
       ...           ...                  ...                  ...
       120        2.0000           -0.4938844             -13.4393
       121        2.0000           -0.4869934             -13.2518
       122        2.0000           -0.4841392             -13.1741
       123        2.0000           -0.4804810             -13.0746
       124        2.0000           -0.4800360             -13.0624
       125        2.0000           -0.4660798             -12.6827
       126        2.0000           -0.4524445             -12.3116 (HOMO)
       127                         -0.3830999             -10.4247 (LUMO)
       128                         -0.3697337             -10.0610
       129                         -0.3529085              -9.6031
       130                         -0.3465469              -9.4300
       131                         -0.3235994              -8.8056
       ...                                ...                  ...
       260                          1.0307717              28.0487
      -------------------------------------------------------------
                  HL-Gap            0.0693446 Eh            1.8870 eV
             Fermi-level           -0.4177722 Eh          -11.3682 eV

 SCC (total)                   0 d,  0 h,  0 min,  2.025 sec
 SCC setup                      ...        0 min,  0.000 sec (  0.020%)
 Dispersion                     ...        0 min,  0.002 sec (  0.095%)
 classical contributions        ...        0 min,  0.000 sec (  0.008%)
 integral evaluation            ...        0 min,  0.008 sec (  0.398%)
 iterations                     ...        0 min,  1.781 sec ( 87.939%)
 molecular gradient             ...        0 min,  0.191 sec (  9.421%)
 printout                       ...        0 min,  0.043 sec (  2.116%)

         :::::::::::::::::::::::::::::::::::::::::::::::::::::
         ::                     SUMMARY                     ::
         :::::::::::::::::::::::::::::::::::::::::::::::::::::
         :: total energy            -134.500913663718 Eh    ::
         :: gradient norm              0.135014257139 Eh/a0 ::
         :: HOMO-LUMO gap              1.886961717595 eV    ::
         ::.................................................::
         :: SCC energy              -136.536533687625 Eh    ::
         :: -> isotropic ES            0.077384988654 Eh    ::
         :: -> anisotropic ES          0.011355765010 Eh    ::
         :: -> anisotropic XC          0.083124907264 Eh    ::
         :: -> dispersion             -0.149229662426 Eh    ::
         :: repulsion energy           2.035620023907 Eh    ::
         :: add. restraining           0.000000000000 Eh    ::
         :: total charge               1.000000000000 e     ::
         :::::::::::::::::::::::::::::::::::::::::::::::::::::

      ----------------------------------------------------------- 
     |                   =====================                   |
     |                        A N C O P T                        |
     |                   =====================                   |
     |               Approximate Normal Coordinate               |
     |                Rational Function Optimizer                |
      ----------------------------------------------------------- 
      ----------------------------------------------------------- 
     |                   =====================                   |
     |                        A N C O P T                        |
     |                   =====================                   |
     |               Approximate Normal Coordinate               |
     |                Rational Function Optimizer                |
      ----------------------------------------------------------- 

          ...................................................
          :                      SETUP                      :
          :.................................................:
          :   optimization level           extreme          :
          :   max. optcycles                  2020          :
          :   ANC micro-cycles                  20          :
          :   degrees of freedom               297          :
          :.................................................:
          :   RF solver                   davidson          :
          :   write xtbopt.log                true          :
          :   linear?                        false          :
          :   energy convergence         0.5000000E-07 Eh   :
          :   grad. convergence          0.5000000E-04 Eh/α :
          :   maxmium RF displ.          1.0000000          :
          :   Hlow (freq-cutoff)         0.1000000E-01      :
          :   Hmax (freq-cutoff)         5.0000000          :
          :   S6 in model hess.         20.0000000          :
          ...................................................

generating ANC from exact Hessian ...
Using Lindh-Hessian (1995)
 Shifting diagonal of input Hessian by    9.9465796686007118E-003
 Lowest  eigenvalues of input Hessian
    0.000000    0.000000    0.000000    0.000000    0.000000    0.000000
    0.010000    0.010028    0.010123    0.010212    0.010258    0.010278
    0.010397    0.010555    0.010589    0.010851    0.010969    0.010980
 Highest eigenvalues
    1.932306    1.976494    1.992290    2.021804    2.065785    2.070444


........................................................................
.............................. CYCLE    1 ..............................
........................................................................

 iter      E             dE          RMSdq      gap      omega  full diag
   1   -136.5453140 -0.136545E+03  0.109E-04    1.89       0.0  T
   2   -136.5453140 -0.827072E-10  0.700E-05    1.89     142.2  T
   3   -136.5453140 -0.404725E-10  0.517E-05    1.89     192.4  T
     SCC iter.                  ...        0 min,  0.338 sec
     gradient                   ...        0 min,  0.125 sec
 * total energy  :  -134.5009137 Eh     change       -0.3356575E-08 Eh
   gradient norm :     0.1350143 Eh/α   predicted     0.0000000E+00 (-100.00%)
   displ. norm   :     0.4205253 α      lambda       -0.3026468E-01
   maximum displ.:     0.1056353 α      in ANC's #31, #68, #25, ...

........................................................................
.............................. CYCLE    2 ..............................
........................................................................

 iter      E             dE          RMSdq      gap      omega  full diag
   1   -136.6294196 -0.136629E+03  0.230E-01    1.95       0.0  T
   2   -136.6295902 -0.170582E-03  0.127E-01    2.02       1.0  T
   3   -136.6294490  0.141173E-03  0.484E-02    2.06       1.0  T
   4   -136.6296047 -0.155703E-03  0.240E-02    2.06       1.0  T
   5   -136.6296427 -0.380278E-04  0.106E-02    2.05       1.0  T
   6   -136.6296475 -0.481529E-05  0.541E-03    2.05       1.8  T
   7   -136.6296489 -0.135313E-05  0.329E-03    2.05       3.0  T
   8   -136.6296491 -0.196022E-06  0.193E-03    2.05       5.2  T
   9   -136.6296491 -0.346643E-07  0.873E-04    2.05      11.4  T
  10   -136.6296491 -0.113668E-07  0.424E-04    2.05      23.5  T
     SCC iter.                  ...        0 min,  1.578 sec
     gradient                   ...        0 min,  0.123 sec
 * total energy  :  -134.5225182 Eh     change       -0.2160455E-01 Eh
   gradient norm :     0.0586760 Eh/α   predicted    -0.1783581E-01 ( -17.44%)
   displ. norm   :     0.4472059 α      lambda       -0.1172086E-01
   maximum displ.:     0.1390504 α      in ANC's #25, #29, #59, ...

........................................................................
.............................. CYCLE    3 ..............................
........................................................................

 iter      E             dE          RMSdq      gap      omega  full diag
   1   -136.6816587 -0.136682E+03  0.186E-01    2.14       0.0  T
   2   -136.6817222 -0.634736E-04  0.970E-02    2.18       1.0  T
   3   -136.6816684  0.537358E-04  0.307E-02    2.20       1.0  T
   4   -136.6817263 -0.578834E-04  0.158E-02    2.20       1.0  T
   5   -136.6817412 -0.148445E-04  0.670E-03    2.20       1.5  T
   6   -136.6817434 -0.221294E-05  0.294E-03    2.20       3.4  T
   7   -136.6817437 -0.297203E-06  0.180E-03    2.20       5.5  T
   8   -136.6817437 -0.561571E-07  0.998E-04    2.20      10.0  T
   9   -136.6817437 -0.119481E-07  0.545E-04    2.20      18.3  T
     SCC iter.                  ...        0 min,  1.348 sec
     gradient                   ...        0 min,  0.121 sec
 * total energy  :  -134.5299011 Eh     change       -0.7382862E-02 Eh
   gradient norm :     0.0143421 Eh/α   predicted    -0.7032480E-02 (  -4.75%)
   displ. norm   :     0.4238720 α      lambda       -0.3172853E-02
   maximum displ.:     0.1716428 α      in ANC's #25, #9, #24, ...

........................................................................
.............................. CYCLE    4 ..............................
........................................................................

 iter      E             dE          RMSdq      gap      omega  full diag
   1   -136.6913575 -0.136691E+03  0.107E-01    2.25       0.0  T
   2   -136.6913766 -0.191158E-04  0.562E-02    2.26       1.0  T
   3   -136.6913632  0.134399E-04  0.155E-02    2.27       1.0  T
   4   -136.6913726 -0.938770E-05  0.954E-03    2.27       1.0  T
   5   -136.6913808 -0.824720E-05  0.295E-03    2.27       3.4  T
   6   -136.6913810 -0.242290E-06  0.143E-03    2.27       7.0  T
   7   -136.6913811 -0.876815E-07  0.630E-04    2.27      15.8  T
   8   -136.6913811 -0.664420E-08  0.376E-04    2.27      26.4  T
     SCC iter.                  ...        0 min,  1.213 sec
     gradient                   ...        0 min,  0.124 sec
 * total energy  :  -134.5322422 Eh     change       -0.2341130E-02 Eh
   gradient norm :     0.0131439 Eh/α   predicted    -0.1871478E-02 ( -20.06%)
   displ. norm   :     0.5224417 α      lambda       -0.2392008E-02
   maximum displ.:     0.2230265 α      in ANC's #9, #25, #20, ...

........................................................................
.............................. CYCLE    5 ..............................
........................................................................

 iter      E             dE          RMSdq      gap      omega  full diag
   1   -136.6951249 -0.136695E+03  0.830E-02    2.29       0.0  T
   2   -136.6951387 -0.137886E-04  0.449E-02    2.29       1.0  T
   3   -136.6951320  0.667078E-05  0.145E-02    2.28       1.0  T
   4   -136.6951405 -0.847022E-05  0.624E-03    2.29       1.6  T
   5   -136.6951415 -0.101577E-05  0.285E-03    2.28       3.5  T
   6   -136.6951420 -0.491579E-06  0.126E-03    2.29       7.9  T
   7   -136.6951421 -0.970109E-07  0.592E-04    2.29      16.8  T
   8   -136.6951421 -0.616353E-08  0.243E-04    2.29      40.9  T
     SCC iter.                  ...        0 min,  1.302 sec
     gradient                   ...        0 min,  0.176 sec
 * total energy  :  -134.5339400 Eh     change       -0.1697808E-02 Eh
   gradient norm :     0.0106780 Eh/α   predicted    -0.1522450E-02 ( -10.33%)
   displ. norm   :     0.4972809 α      lambda       -0.1485282E-02
   maximum displ.:     0.2372842 α      in ANC's #9, #25, #7, ...

........................................................................
.............................. CYCLE    6 ..............................
........................................................................

 iter      E             dE          RMSdq      gap      omega  full diag
   1   -136.6956874 -0.136696E+03  0.777E-02    2.30       0.0  T
   2   -136.6957010 -0.136502E-04  0.389E-02    2.30       1.0  T
   3   -136.6957004  0.640209E-06  0.111E-02    2.30       1.0  T
   4   -136.6957004 -0.212092E-07  0.656E-03    2.30       1.5  T
   5   -136.6957024 -0.195553E-05  0.278E-03    2.30       3.6  T
   6   -136.6957028 -0.487842E-06  0.128E-03    2.30       7.8  T
   7   -136.6957029 -0.675664E-07  0.755E-04    2.30      13.2  T
   8   -136.6957029 -0.924672E-08  0.466E-04    2.30      21.3  T
     SCC iter.                  ...        0 min,  1.269 sec
     gradient                   ...        0 min,  0.183 sec
 * total energy  :  -134.5349881 Eh     change       -0.1048047E-02 Eh
   gradient norm :     0.0069301 Eh/α   predicted    -0.9262918E-03 ( -11.62%)
   displ. norm   :     0.4513240 α      lambda       -0.9498604E-03
   maximum displ.:     0.2297496 α      in ANC's #9, #7, #25, ...

........................................................................
.............................. CYCLE    7 ..............................
........................................................................

 iter      E             dE          RMSdq      gap      omega  full diag
   1   -136.6968720 -0.136697E+03  0.492E-02    2.31       0.0  T
   2   -136.6968765 -0.453788E-05  0.270E-02    2.31       1.0  T
   3   -136.6968757  0.807997E-06  0.710E-03    2.30       1.4  T
   4   -136.6968770 -0.127715E-05  0.320E-03    2.30       3.1  T
   5   -136.6968773 -0.307303E-06  0.115E-03    2.30       8.7  T
   6   -136.6968773 -0.631685E-07  0.535E-04    2.30      18.6  T
   7   -136.6968773 -0.571617E-08  0.343E-04    2.30      29.0  T
     SCC iter.                  ...        0 min,  1.131 sec
     gradient                   ...        0 min,  0.123 sec
 * total energy  :  -134.5356911 Eh     change       -0.7029883E-03 Eh
   gradient norm :     0.0063898 Eh/α   predicted    -0.5716714E-03 ( -18.68%)
   displ. norm   :     0.4207196 α      lambda       -0.6702361E-03
   maximum displ.:     0.2215776 α      in ANC's #9, #7, #5, ...

........................................................................
.............................. CYCLE    8 ..............................
........................................................................

 iter      E             dE          RMSdq      gap      omega  full diag
   1   -136.6989858 -0.136699E+03  0.459E-02    2.31       0.0  T
   2   -136.6989889 -0.302896E-05  0.249E-02    2.31       1.0  T
   3   -136.6989880  0.832136E-06  0.673E-03    2.31       1.5  T
   4   -136.6989890 -0.948445E-06  0.321E-03    2.31       3.1  T
   5   -136.6989895 -0.478288E-06  0.103E-03    2.31       9.7  T
   6   -136.6989895 -0.577051E-07  0.368E-04    2.31      27.0  T
   7   -136.6989895 -0.359316E-08  0.250E-04    2.31      39.8  T
     SCC iter.                  ...        0 min,  0.644 sec
     gradient                   ...        0 min,  0.120 sec
 * total energy  :  -134.5362093 Eh     change       -0.5182259E-03 Eh
   gradient norm :     0.0059627 Eh/α   predicted    -0.3944384E-03 ( -23.89%)
   displ. norm   :     0.4318646 α      lambda       -0.5542930E-03
   maximum displ.:     0.2256466 α      in ANC's #9, #7, #5, ...

........................................................................
.............................. CYCLE    9 ..............................
........................................................................

 iter      E             dE          RMSdq      gap      omega  full diag
   1   -136.7003722 -0.136700E+03  0.466E-02    2.30       0.0  T
   2   -136.7003756 -0.335234E-05  0.240E-02    2.30       1.0  T
   3   -136.7003745  0.109377E-05  0.740E-03    2.30       1.3  T
   4   -136.7003758 -0.125555E-05  0.356E-03    2.30       2.8  T
   5   -136.7003763 -0.560397E-06  0.977E-04    2.30      10.2  T
   6   -136.7003764 -0.490089E-07  0.336E-04    2.30      29.6  T
     SCC iter.                  ...        0 min,  0.786 sec
     gradient                   ...        0 min,  0.151 sec
 * total energy  :  -134.5366395 Eh     change       -0.4302268E-03 Eh
   gradient norm :     0.0048618 Eh/α   predicted    -0.3288385E-03 ( -23.57%)
   displ. norm   :     0.4400194 α      lambda       -0.4547797E-03
   maximum displ.:     0.2216004 α      in ANC's #9, #7, #5, ...

........................................................................
.............................. CYCLE   10 ..............................
........................................................................

 iter      E             dE          RMSdq      gap      omega  full diag
   1   -136.7016765 -0.136702E+03  0.415E-02    2.30       0.0  T
   2   -136.7016785 -0.199499E-05  0.242E-02    2.30       1.0  T
   3   -136.7016772  0.124827E-05  0.550E-03    2.30       1.8  T
   4   -136.7016786 -0.143991E-05  0.226E-03    2.30       4.4  T
   5   -136.7016789 -0.224979E-06  0.114E-03    2.30       8.7  T
   6   -136.7016789 -0.393910E-07  0.604E-04    2.30      16.5  T
   7   -136.7016789 -0.396346E-08  0.403E-04    2.30      24.7  T
     SCC iter.                  ...        0 min,  0.961 sec
     gradient                   ...        0 min,  0.119 sec
 * total energy  :  -134.5369799 Eh     change       -0.3403687E-03 Eh
   gradient norm :     0.0040443 Eh/α   predicted    -0.2714171E-03 ( -20.26%)
   displ. norm   :     0.3943355 α      lambda       -0.3161834E-03
   maximum displ.:     0.1892547 α      in ANC's #9, #5, #7, ...

........................................................................
.............................. CYCLE   11 ..............................
........................................................................

 iter      E             dE          RMSdq      gap      omega  full diag
   1   -136.7016833 -0.136702E+03  0.434E-02    2.29       0.0  T
   2   -136.7016860 -0.265302E-05  0.233E-02    2.30       1.0  T
   3   -136.7016850  0.932510E-06  0.668E-03    2.30       1.5  T
   4   -136.7016861 -0.102989E-05  0.302E-03    2.30       3.3  T
   5   -136.7016863 -0.284054E-06  0.136E-03    2.30       7.3  T
   6   -136.7016865 -0.164268E-06  0.506E-04    2.30      19.7  T
   7   -136.7016865 -0.174455E-07  0.255E-04    2.30      39.0  T
     SCC iter.                  ...        0 min,  0.949 sec
     gradient                   ...        0 min,  0.122 sec
 * total energy  :  -134.5372053 Eh     change       -0.2253885E-03 Eh
   gradient norm :     0.0038944 Eh/α   predicted    -0.1826754E-03 ( -18.95%)
   displ. norm   :     0.3081193 α      lambda       -0.2020473E-03
   maximum displ.:     0.1285510 α      in ANC's #9, #5, #7, ...

........................................................................
.............................. CYCLE   12 ..............................
........................................................................

 iter      E             dE          RMSdq      gap      omega  full diag
   1   -136.7021994 -0.136702E+03  0.356E-02    2.30       0.0  T
   2   -136.7022000 -0.636086E-06  0.207E-02    2.30       1.0  T
   3   -136.7021997  0.384172E-06  0.309E-03    2.30       3.2  T
   4   -136.7022001 -0.456654E-06  0.152E-03    2.30       6.5  T
   5   -136.7022002 -0.977893E-07  0.767E-04    2.30      13.0  T
   6   -136.7022002 -0.214424E-07  0.484E-04    2.30      20.6  T
     SCC iter.                  ...        0 min,  0.785 sec
     gradient                   ...        0 min,  0.130 sec
 * total energy  :  -134.5373505 Eh     change       -0.1452672E-03 Eh
   gradient norm :     0.0036790 Eh/α   predicted    -0.1106197E-03 ( -23.85%)
   displ. norm   :     0.2679174 α      lambda       -0.1642094E-03
   maximum displ.:     0.1088395 α      in ANC's #5, #8, #9, ...

........................................................................
.............................. CYCLE   13 ..............................
........................................................................

 iter      E             dE          RMSdq      gap      omega  full diag
   1   -136.7021156 -0.136702E+03  0.367E-02    2.30       0.0  T
   2   -136.7021161 -0.587978E-06  0.215E-02    2.30       1.0  T
   3   -136.7021153  0.866871E-06  0.348E-03    2.30       2.9  T
   4   -136.7021162 -0.919418E-06  0.131E-03    2.30       7.6  T
   5   -136.7021163 -0.139411E-06  0.532E-04    2.30      18.7  T
   6   -136.7021164 -0.141846E-07  0.241E-04    2.30      41.4  T
     SCC iter.                  ...        0 min,  0.744 sec
     gradient                   ...        0 min,  0.145 sec
 * total energy  :  -134.5374754 Eh     change       -0.1248175E-03 Eh
   gradient norm :     0.0031772 Eh/α   predicted    -0.8799876E-04 ( -29.50%)
   displ. norm   :     0.2963998 α      lambda       -0.1733524E-03
   maximum displ.:     0.1111883 α      in ANC's #5, #8, #10, ...

........................................................................
.............................. CYCLE   14 ..............................
........................................................................

 iter      E             dE          RMSdq      gap      omega  full diag
   1   -136.7018933 -0.136702E+03  0.445E-02    2.31       0.0  T
   2   -136.7018941 -0.772395E-06  0.258E-02    2.31       1.0  T
   3   -136.7018937  0.396624E-06  0.337E-03    2.31       2.9  T
   4   -136.7018942 -0.505974E-06  0.141E-03    2.31       7.0  T
   5   -136.7018943 -0.870794E-07  0.613E-04    2.31      16.2  T
   6   -136.7018943 -0.335446E-07  0.251E-04    2.31      39.6  T
     SCC iter.                  ...        0 min,  0.866 sec
     gradient                   ...        0 min,  0.126 sec
 * total energy  :  -134.5376064 Eh     change       -0.1310069E-03 Eh
   gradient norm :     0.0032750 Eh/α   predicted    -0.9429421E-04 ( -28.02%)
   displ. norm   :     0.3143045 α      lambda       -0.1573474E-03
   maximum displ.:     0.1130834 α      in ANC's #5, #8, #10, ...

........................................................................
.............................. CYCLE   15 ..............................
........................................................................

 iter      E             dE          RMSdq      gap      omega  full diag
   1   -136.7012864 -0.136701E+03  0.459E-02    2.31       0.0  T
   2   -136.7012872 -0.756041E-06  0.267E-02    2.31       1.0  T
   3   -136.7012869  0.305774E-06  0.322E-03    2.31       3.1  T
   4   -136.7012873 -0.462640E-06  0.120E-03    2.31       8.3  T
   5   -136.7012874 -0.427702E-07  0.574E-04    2.31      17.3  T
   6   -136.7012874 -0.198763E-07  0.260E-04    2.31      38.3  T
     SCC iter.                  ...        0 min,  0.682 sec
     gradient                   ...        0 min,  0.125 sec
 * total energy  :  -134.5377235 Eh     change       -0.1171295E-03 Eh
   gradient norm :     0.0037138 Eh/α   predicted    -0.8645108E-04 ( -26.19%)
   displ. norm   :     0.2836980 α      lambda       -0.1238972E-03
   maximum displ.:     0.1051962 α      in ANC's #10, #5, #8, ...

........................................................................
.............................. CYCLE   16 ..............................
........................................................................

 iter      E             dE          RMSdq      gap      omega  full diag
   1   -136.7012998 -0.136701E+03  0.390E-02    2.32       0.0  T
   2   -136.7013003 -0.544614E-06  0.226E-02    2.32       1.0  T
   3   -136.7013001  0.215422E-06  0.283E-03    2.32       3.5  T
   4   -136.7013004 -0.311192E-06  0.109E-03    2.32       9.2  T
   5   -136.7013004 -0.380648E-07  0.530E-04    2.32      18.8  T
   6   -136.7013005 -0.215149E-07  0.239E-04    2.32      41.6  T
     SCC iter.                  ...        0 min,  1.001 sec
     gradient                   ...        0 min,  0.126 sec
 * total energy  :  -134.5378159 Eh     change       -0.9240067E-04 Eh
   gradient norm :     0.0033261 Eh/α   predicted    -0.6693508E-04 ( -27.56%)
   displ. norm   :     0.2620690 α      lambda       -0.9804518E-04
   maximum displ.:     0.0961656 α      in ANC's #5, #10, #2, ...

........................................................................
.............................. CYCLE   17 ..............................
........................................................................

 iter      E             dE          RMSdq      gap      omega  full diag
   1   -136.7015842 -0.136702E+03  0.326E-02    2.32       0.0  T
   2   -136.7015845 -0.303664E-06  0.191E-02    2.32       1.0  T
   3   -136.7015841  0.428225E-06  0.235E-03    2.32       4.2  T
   4   -136.7015845 -0.468006E-06  0.953E-04    2.32      10.4  T
   5   -136.7015846 -0.695898E-07  0.430E-04    2.32      23.2  T
     SCC iter.                  ...        0 min,  0.639 sec
     gradient                   ...        0 min,  0.133 sec
 * total energy  :  -134.5378883 Eh     change       -0.7238699E-04 Eh
   gradient norm :     0.0025734 Eh/α   predicted    -0.5239037E-04 ( -27.62%)
   displ. norm   :     0.2392191 α      lambda       -0.7451973E-04
   maximum displ.:     0.0882544 α      in ANC's #2, #5, #3, ...

........................................................................
.............................. CYCLE   18 ..............................
........................................................................

 iter      E             dE          RMSdq      gap      omega  full diag
   1   -136.7022043 -0.136702E+03  0.276E-02    2.33       0.0  T
   2   -136.7022046 -0.303051E-06  0.161E-02    2.33       1.0  T
   3   -136.7022043  0.308779E-06  0.220E-03    2.33       4.5  T
   4   -136.7022046 -0.365214E-06  0.834E-04    2.33      11.9  T
   5   -136.7022047 -0.377123E-07  0.398E-04    2.33      25.0  T
     SCC iter.                  ...        0 min,  0.696 sec
     gradient                   ...        0 min,  0.120 sec
 * total energy  :  -134.5379443 Eh     change       -0.5599567E-04 Eh
   gradient norm :     0.0024144 Eh/α   predicted    -0.3939614E-04 ( -29.64%)
   displ. norm   :     0.2516249 α      lambda       -0.6712390E-04
   maximum displ.:     0.0972809 α      in ANC's #2, #5, #3, ...

........................................................................
.............................. CYCLE   19 ..............................
........................................................................

 iter      E             dE          RMSdq      gap      omega  full diag
   1   -136.7023312 -0.136702E+03  0.278E-02    2.33       0.0  T
   2   -136.7023317 -0.420585E-06  0.160E-02    2.33       1.0  T
   3   -136.7023314  0.221615E-06  0.256E-03    2.33       3.9  T
   4   -136.7023318 -0.312525E-06  0.904E-04    2.33      11.0  T
   5   -136.7023318 -0.218000E-07  0.445E-04    2.33      22.4  T
     SCC iter.                  ...        0 min,  0.746 sec
     gradient                   ...        0 min,  0.123 sec
 * total energy  :  -134.5379957 Eh     change       -0.5146983E-04 Eh
   gradient norm :     0.0027000 Eh/α   predicted    -0.3569099E-04 ( -30.66%)
   displ. norm   :     0.2657705 α      lambda       -0.6900685E-04
   maximum displ.:     0.1091177 α      in ANC's #2, #3, #5, ...

........................................................................
.............................. CYCLE   20 ..............................
........................................................................

 iter      E             dE          RMSdq      gap      omega  full diag
   1   -136.7031774 -0.136703E+03  0.285E-02    2.33       0.0  T
   2   -136.7031780 -0.623395E-06  0.162E-02    2.33       1.0  T
   3   -136.7031778  0.227241E-06  0.309E-03    2.33       3.2  T
   4   -136.7031781 -0.343720E-06  0.112E-03    2.33       8.9  T
   5   -136.7031782 -0.282133E-07  0.549E-04    2.33      18.1  T
   6   -136.7031782 -0.127064E-07  0.293E-04    2.33      34.0  T
     SCC iter.                  ...        0 min,  0.807 sec
     gradient                   ...        0 min,  0.123 sec
 * total energy  :  -134.5380473 Eh     change       -0.5154447E-04 Eh
   gradient norm :     0.0027961 Eh/α   predicted    -0.3694300E-04 ( -28.33%)
   displ. norm   :     0.2849694 α      lambda       -0.6382346E-04
   maximum displ.:     0.1220303 α      in ANC's #2, #3, #5, ...
 * RMSD in coord.:     0.5035756 α      energy gain  -0.3713362E-01 Eh

generating ANC from exact Hessian ...
Using Lindh-Hessian (1995)
 Shifting diagonal of input Hessian by    9.9446473117957308E-003
 Lowest  eigenvalues of input Hessian
    0.000000    0.000000    0.000000    0.000000    0.000000    0.000000
    0.010000    0.010024    0.010125    0.010151    0.010259    0.010353
    0.010498    0.010605    0.010829    0.010858    0.010989    0.011026
 Highest eigenvalues
    1.986884    2.001841    2.027123    2.073581    2.113785    2.126956


........................................................................
.............................. CYCLE   21 ..............................
........................................................................

 iter      E             dE          RMSdq      gap      omega  full diag
   1   -136.7024777 -0.136702E+03  0.296E-02    2.33       0.0  T
   2   -136.7024783 -0.616340E-06  0.169E-02    2.34       1.0  T
   3   -136.7024779  0.410619E-06  0.329E-03    2.34       3.0  T
   4   -136.7024784 -0.511679E-06  0.122E-03    2.34       8.2  T
   5   -136.7024785 -0.487643E-07  0.604E-04    2.34      16.5  T
   6   -136.7024785 -0.187204E-07  0.340E-04    2.34      29.2  T
     SCC iter.                  ...        0 min,  0.855 sec
     gradient                   ...        0 min,  0.123 sec
 * total energy  :  -134.5380923 Eh     change       -0.4500760E-04 Eh
   gradient norm :     0.0023295 Eh/α   predicted     0.0000000E+00 (-100.00%)
   displ. norm   :     0.0339665 α      lambda       -0.2170593E-04
   maximum displ.:     0.0117051 α      in ANC's #2, #9, #22, ...

........................................................................
.............................. CYCLE   22 ..............................
........................................................................

 iter      E             dE          RMSdq      gap      omega  full diag
   1   -136.7029883 -0.136703E+03  0.702E-03    2.34       0.0  T
   2   -136.7029883 -0.600200E-07  0.406E-03    2.34       2.5  T
   3   -136.7029882  0.942393E-07  0.121E-03    2.34       8.3  T
   4   -136.7029883 -0.100459E-06  0.415E-04    2.34      24.0  T
   5   -136.7029883 -0.102938E-07  0.168E-04    2.34      59.3  T
     SCC iter.                  ...        0 min,  0.585 sec
     gradient                   ...        0 min,  0.130 sec
 * total energy  :  -134.5381116 Eh     change       -0.1935358E-04 Eh
   gradient norm :     0.0012566 Eh/α   predicted    -0.1151940E-04 ( -40.48%)
   displ. norm   :     0.1733676 α      lambda       -0.5104248E-04
   maximum displ.:     0.0637594 α      in ANC's #2, #9, #22, ...

........................................................................
.............................. CYCLE   23 ..............................
........................................................................

 iter      E             dE          RMSdq      gap      omega  full diag
   1   -136.7038763 -0.136704E+03  0.312E-02    2.34       0.0  T
   2   -136.7038770 -0.684189E-06  0.180E-02    2.34       1.0  T
   3   -136.7038754  0.164158E-05  0.475E-03    2.34       2.1  T
   4   -136.7038771 -0.178294E-05  0.145E-03    2.34       6.8  T
   5   -136.7038773 -0.106346E-06  0.637E-04    2.34      15.6  T
   6   -136.7038773 -0.321508E-07  0.280E-04    2.34      35.6  T
     SCC iter.                  ...        0 min,  0.535 sec
     gradient                   ...        0 min,  0.119 sec
 * total energy  :  -134.5381456 Eh     change       -0.3400151E-04 Eh
   gradient norm :     0.0026571 Eh/α   predicted    -0.2586231E-04 ( -23.94%)
   displ. norm   :     0.0349149 α      lambda       -0.1475509E-04
   maximum displ.:     0.0152778 α      in ANC's #2, #9, #1, ...

........................................................................
.............................. CYCLE   24 ..............................
........................................................................

 iter      E             dE          RMSdq      gap      omega  full diag
   1   -136.7036280 -0.136704E+03  0.625E-03    2.34       0.0  T
   2   -136.7036281 -0.897363E-07  0.319E-03    2.34       3.1  T
   3   -136.7036280  0.963800E-08  0.985E-04    2.34      10.1  T
   4   -136.7036281 -0.622614E-08  0.521E-04    2.34      19.1  T
     SCC iter.                  ...        0 min,  0.598 sec
     gradient                   ...        0 min,  0.124 sec
 * total energy  :  -134.5381578 Eh     change       -0.1210519E-04 Eh
   gradient norm :     0.0020119 Eh/α   predicted    -0.7387015E-05 ( -38.98%)
   displ. norm   :     0.1349856 α      lambda       -0.4565283E-04
   maximum displ.:     0.0594804 α      in ANC's #2, #9, #1, ...

........................................................................
.............................. CYCLE   25 ..............................
........................................................................

 iter      E             dE          RMSdq      gap      omega  full diag
   1   -136.7026904 -0.136703E+03  0.185E-02    2.34       0.0  T
   2   -136.7026906 -0.246374E-06  0.108E-02    2.34       1.0  T
   3   -136.7026904  0.215093E-06  0.180E-03    2.34       5.5  T
   4   -136.7026907 -0.251151E-06  0.700E-04    2.34      14.2  T
   5   -136.7026907 -0.245634E-07  0.332E-04    2.34      30.0  T
     SCC iter.                  ...        0 min,  0.663 sec
     gradient                   ...        0 min,  0.120 sec
 * total energy  :  -134.5381849 Eh     change       -0.2718742E-04 Eh
   gradient norm :     0.0013750 Eh/α   predicted    -0.2324327E-04 ( -14.51%)
   displ. norm   :     0.1448550 α      lambda       -0.1446414E-04
   maximum displ.:     0.0673949 α      in ANC's #2, #1, #9, ...

........................................................................
.............................. CYCLE   26 ..............................
........................................................................

 iter      E             dE          RMSdq      gap      omega  full diag
   1   -136.7024796 -0.136702E+03  0.167E-02    2.34       0.0  T
   2   -136.7024797 -0.116909E-06  0.971E-03    2.34       1.0  T
   3   -136.7024796  0.160960E-06  0.155E-03    2.34       6.4  T
   4   -136.7024797 -0.171886E-06  0.630E-04    2.34      15.8  T
   5   -136.7024798 -0.254396E-07  0.248E-04    2.34      40.1  T
     SCC iter.                  ...        0 min,  0.514 sec
     gradient                   ...        0 min,  0.186 sec
 * total energy  :  -134.5382007 Eh     change       -0.1579236E-04 Eh
   gradient norm :     0.0015548 Eh/α   predicted    -0.7299639E-05 ( -53.78%)
   displ. norm   :     0.1446347 α      lambda       -0.1556999E-04
   maximum displ.:     0.0723291 α      in ANC's #2, #1, #9, ...

........................................................................
.............................. CYCLE   27 ..............................
........................................................................

 iter      E             dE          RMSdq      gap      omega  full diag
   1   -136.7028775 -0.136703E+03  0.153E-02    2.34       0.0  T
   2   -136.7028776 -0.105486E-06  0.883E-03    2.34       1.1  T
   3   -136.7028775  0.161103E-06  0.165E-03    2.34       6.0  T
   4   -136.7028777 -0.188099E-06  0.541E-04    2.34      18.4  T
   5   -136.7028777 -0.101305E-07  0.246E-04    2.34      40.4  T
     SCC iter.                  ...        0 min,  0.681 sec
     gradient                   ...        0 min,  0.127 sec
 * total energy  :  -134.5382177 Eh     change       -0.1693279E-04 Eh
   gradient norm :     0.0007440 Eh/α   predicted    -0.7861731E-05 ( -53.57%)
   displ. norm   :     0.1353623 α      lambda       -0.1118722E-04
   maximum displ.:     0.0727649 α      in ANC's #2, #1, #9, ...

........................................................................
.............................. CYCLE   28 ..............................
........................................................................

 iter      E             dE          RMSdq      gap      omega  full diag
   1   -136.7031597 -0.136703E+03  0.133E-02    2.34       0.0  T
   2   -136.7031598 -0.968841E-07  0.747E-03    2.35       1.3  T
   3   -136.7031598  0.422639E-07  0.140E-03    2.35       7.1  T
   4   -136.7031598 -0.395613E-07  0.681E-04    2.35      14.6  T
   5   -136.7031599 -0.273801E-07  0.186E-04    2.35      53.4  T
     SCC iter.                  ...        0 min,  0.642 sec
     gradient                   ...        0 min,  0.119 sec
 * total energy  :  -134.5382306 Eh     change       -0.1293105E-04 Eh
   gradient norm :     0.0007158 Eh/α   predicted    -0.5641590E-05 ( -56.37%)
   displ. norm   :     0.1560772 α      lambda       -0.1294578E-04
   maximum displ.:     0.0869349 α      in ANC's #2, #1, #4, ...

........................................................................
.............................. CYCLE   29 ..............................
........................................................................

 iter      E             dE          RMSdq      gap      omega  full diag
   1   -136.7033177 -0.136703E+03  0.146E-02    2.35       0.0  T
   2   -136.7033179 -0.121877E-06  0.833E-03    2.35       1.2  T
   3   -136.7033177  0.139577E-06  0.166E-03    2.35       6.0  T
   4   -136.7033179 -0.164820E-06  0.578E-04    2.35      17.2  T
   5   -136.7033179 -0.125139E-07  0.264E-04    2.35      37.6  T
     SCC iter.                  ...        0 min,  0.889 sec
     gradient                   ...        0 min,  0.123 sec
 * total energy  :  -134.5382451 Eh     change       -0.1451162E-04 Eh
   gradient norm :     0.0009608 Eh/α   predicted    -0.6547982E-05 ( -54.88%)
   displ. norm   :     0.1696581 α      lambda       -0.1433414E-04
   maximum displ.:     0.0956890 α      in ANC's #2, #1, #4, ...

........................................................................
.............................. CYCLE   30 ..............................
........................................................................

 iter      E             dE          RMSdq      gap      omega  full diag
   1   -136.7034801 -0.136703E+03  0.179E-02    2.35       0.0  T
   2   -136.7034804 -0.266173E-06  0.963E-03    2.35       1.0  T
   3   -136.7034803  0.217485E-07  0.213E-03    2.35       4.7  T
   4   -136.7034803  0.481270E-08  0.112E-03    2.35       8.9  T
   5   -136.7034804 -0.798879E-07  0.198E-04    2.35      50.2  T
   6   -136.7034804 -0.142438E-08  0.118E-04    2.35      84.4  T
     SCC iter.                  ...        0 min,  0.745 sec
     gradient                   ...        0 min,  0.123 sec
 * total energy  :  -134.5382616 Eh     change       -0.1644780E-04 Eh
   gradient norm :     0.0009352 Eh/α   predicted    -0.7260932E-05 ( -55.85%)
   displ. norm   :     0.1782238 α      lambda       -0.1369672E-04
   maximum displ.:     0.1024974 α      in ANC's #2, #1, #13, ...

........................................................................
.............................. CYCLE   31 ..............................
........................................................................

 iter      E             dE          RMSdq      gap      omega  full diag
   1   -136.7034354 -0.136703E+03  0.170E-02    2.36       0.0  T
   2   -136.7034356 -0.199033E-06  0.947E-03    2.36       1.1  T
   3   -136.7034354  0.151234E-06  0.208E-03    2.36       4.8  T
   4   -136.7034355 -0.137036E-06  0.106E-03    2.36       9.4  T
   5   -136.7034356 -0.617579E-07  0.285E-04    2.36      35.0  T
   6   -136.7034356 -0.792184E-08  0.121E-04    2.36      82.1  T
     SCC iter.                  ...        0 min,  0.839 sec
     gradient                   ...        0 min,  0.125 sec
 * total energy  :  -134.5382782 Eh     change       -0.1667621E-04 Eh
   gradient norm :     0.0008180 Eh/α   predicted    -0.6949800E-05 ( -58.33%)
   displ. norm   :     0.2006887 α      lambda       -0.1539760E-04
   maximum displ.:     0.1160436 α      in ANC's #2, #1, #8, ...

........................................................................
.............................. CYCLE   32 ..............................
........................................................................

 iter      E             dE          RMSdq      gap      omega  full diag
   1   -136.7032728 -0.136703E+03  0.183E-02    2.36       0.0  T
   2   -136.7032730 -0.201144E-06  0.103E-02    2.36       1.0  T
   3   -136.7032729  0.163115E-06  0.214E-03    2.36       4.7  T
   4   -136.7032730 -0.153786E-06  0.107E-03    2.36       9.3  T
   5   -136.7032731 -0.644983E-07  0.257E-04    2.36      38.7  T
   6   -136.7032731 -0.576784E-08  0.125E-04    2.36      79.5  T
     SCC iter.                  ...        0 min,  0.760 sec
     gradient                   ...        0 min,  0.137 sec
 * total energy  :  -134.5382969 Eh     change       -0.1867623E-04 Eh
   gradient norm :     0.0007367 Eh/α   predicted    -0.7839930E-05 ( -58.02%)
   displ. norm   :     0.2280978 α      lambda       -0.1631838E-04
   maximum displ.:     0.1325402 α      in ANC's #2, #1, #8, ...

........................................................................
.............................. CYCLE   33 ..............................
........................................................................

 iter      E             dE          RMSdq      gap      omega  full diag
   1   -136.7030336 -0.136703E+03  0.201E-02    2.36       0.0  T
   2   -136.7030338 -0.207457E-06  0.115E-02    2.36       1.0  T
   3   -136.7030336  0.158440E-06  0.207E-03    2.36       4.8  T
   4   -136.7030338 -0.133148E-06  0.109E-03    2.36       9.1  T
   5   -136.7030338 -0.788760E-07  0.291E-04    2.36      34.3  T
   6   -136.7030339 -0.763450E-08  0.135E-04    2.36      73.8  T
     SCC iter.                  ...        0 min,  1.049 sec
     gradient                   ...        0 min,  0.124 sec
 * total energy  :  -134.5383161 Eh     change       -0.1918876E-04 Eh
   gradient norm :     0.0008132 Eh/α   predicted    -0.8351034E-05 ( -56.48%)
   displ. norm   :     0.2216143 α      lambda       -0.1411670E-04
   maximum displ.:     0.1304895 α      in ANC's #2, #1, #8, ...

........................................................................
.............................. CYCLE   34 ..............................
........................................................................

 iter      E             dE          RMSdq      gap      omega  full diag
   1   -136.7028692 -0.136703E+03  0.196E-02    2.36       0.0  T
   2   -136.7028694 -0.156914E-06  0.112E-02    2.37       1.0  T
   3   -136.7028693  0.100003E-06  0.170E-03    2.37       5.9  T
   4   -136.7028693 -0.703662E-07  0.966E-04    2.37      10.3  T
   5   -136.7028694 -0.744126E-07  0.247E-04    2.37      40.4  T
     SCC iter.                  ...        0 min,  0.513 sec
     gradient                   ...        0 min,  0.122 sec
 * total energy  :  -134.5383325 Eh     change       -0.1636246E-04 Eh
   gradient norm :     0.0008037 Eh/α   predicted    -0.7215655E-05 ( -55.90%)
   displ. norm   :     0.1974777 α      lambda       -0.1150960E-04
   maximum displ.:     0.1178806 α      in ANC's #2, #1, #8, ...

........................................................................
.............................. CYCLE   35 ..............................
........................................................................

 iter      E             dE          RMSdq      gap      omega  full diag
   1   -136.7028868 -0.136703E+03  0.176E-02    2.37       0.0  T
   2   -136.7028869 -0.920188E-07  0.102E-02    2.37       1.0  T
   3   -136.7028868  0.713424E-07  0.115E-03    2.37       8.7  T
   4   -136.7028869 -0.919269E-07  0.464E-04    2.37      21.5  T
   5   -136.7028869 -0.116797E-07  0.193E-04    2.37      51.7  T
     SCC iter.                  ...        0 min,  0.562 sec
     gradient                   ...        0 min,  0.125 sec
 * total energy  :  -134.5383461 Eh     change       -0.1367990E-04 Eh
   gradient norm :     0.0006405 Eh/α   predicted    -0.5855512E-05 ( -57.20%)
   displ. norm   :     0.1969583 α      lambda       -0.1098748E-04
   maximum displ.:     0.1185987 α      in ANC's #2, #1, #7, ...

........................................................................
.............................. CYCLE   36 ..............................
........................................................................

 iter      E             dE          RMSdq      gap      omega  full diag
   1   -136.7030055 -0.136703E+03  0.179E-02    2.37       0.0  T
   2   -136.7030056 -0.103807E-06  0.104E-02    2.37       1.0  T
   3   -136.7030055  0.121814E-06  0.143E-03    2.37       7.0  T
   4   -136.7030056 -0.152494E-06  0.436E-04    2.37      22.8  T
   5   -136.7030056 -0.919243E-08  0.206E-04    2.37      48.2  T
     SCC iter.                  ...        0 min,  0.606 sec
     gradient                   ...        0 min,  0.182 sec
 * total energy  :  -134.5383594 Eh     change       -0.1329246E-04 Eh
   gradient norm :     0.0005192 Eh/α   predicted    -0.5589441E-05 ( -57.95%)
   displ. norm   :     0.2201675 α      lambda       -0.1165743E-04
   maximum displ.:     0.1329564 α      in ANC's #2, #1, #7, ...

........................................................................
.............................. CYCLE   37 ..............................
........................................................................

 iter      E             dE          RMSdq      gap      omega  full diag
   1   -136.7031509 -0.136703E+03  0.199E-02    2.37       0.0  T
   2   -136.7031510 -0.141028E-06  0.115E-02    2.37       1.0  T
   3   -136.7031509  0.164639E-06  0.169E-03    2.37       5.9  T
   4   -136.7031511 -0.209028E-06  0.481E-04    2.37      20.7  T
   5   -136.7031511 -0.924865E-08  0.233E-04    2.37      42.7  T
     SCC iter.                  ...        0 min,  0.811 sec
     gradient                   ...        0 min,  0.172 sec
 * total energy  :  -134.5383737 Eh     change       -0.1424970E-04 Eh
   gradient norm :     0.0005966 Eh/α   predicted    -0.5958503E-05 ( -58.19%)
   displ. norm   :     0.2550484 α      lambda       -0.1277688E-04
   maximum displ.:     0.1548055 α      in ANC's #2, #1, #7, ...

........................................................................
.............................. CYCLE   38 ..............................
........................................................................

 iter      E             dE          RMSdq      gap      omega  full diag
   1   -136.7033090 -0.136703E+03  0.222E-02    2.37       0.0  T
   2   -136.7033092 -0.252270E-06  0.126E-02    2.37       1.0  T
   3   -136.7033090  0.230940E-06  0.234E-03    2.37       4.3  T
   4   -136.7033093 -0.285822E-06  0.763E-04    2.37      13.0  T
   5   -136.7033093 -0.231179E-07  0.330E-04    2.37      30.1  T
     SCC iter.                  ...        0 min,  0.672 sec
     gradient                   ...        0 min,  0.129 sec
 * total energy  :  -134.5383892 Eh     change       -0.1553775E-04 Eh
   gradient norm :     0.0007089 Eh/α   predicted    -0.6578037E-05 ( -57.66%)
   displ. norm   :     0.2826664 α      lambda       -0.1337310E-04
   maximum displ.:     0.1725872 α      in ANC's #2, #1, #7, ...

........................................................................
.............................. CYCLE   39 ..............................
........................................................................

 iter      E             dE          RMSdq      gap      omega  full diag
   1   -136.7035292 -0.136704E+03  0.238E-02    2.37       0.0  T
   2   -136.7035295 -0.301609E-06  0.135E-02    2.37       1.0  T
   3   -136.7035293  0.211129E-06  0.236E-03    2.37       4.2  T
   4   -136.7035295 -0.283434E-06  0.829E-04    2.37      12.0  T
   5   -136.7035296 -0.214233E-07  0.322E-04    2.37      30.9  T
     SCC iter.                  ...        0 min,  0.705 sec
     gradient                   ...        0 min,  0.120 sec
 * total energy  :  -134.5384051 Eh     change       -0.1593107E-04 Eh
   gradient norm :     0.0007224 Eh/α   predicted    -0.6926836E-05 ( -56.52%)
   displ. norm   :     0.2671909 α      lambda       -0.1187013E-04
   maximum displ.:     0.1650602 α      in ANC's #2, #1, #7, ...

........................................................................
.............................. CYCLE   40 ..............................
........................................................................

 iter      E             dE          RMSdq      gap      omega  full diag
   1   -136.7035937 -0.136704E+03  0.217E-02    2.37       0.0  T
   2   -136.7035940 -0.349907E-06  0.121E-02    2.37       1.0  T
   3   -136.7035938  0.206786E-06  0.259E-03    2.37       3.8  T
   4   -136.7035941 -0.268926E-06  0.949E-04    2.37      10.5  T
   5   -136.7035941 -0.260098E-07  0.390E-04    2.37      25.5  T
     SCC iter.                  ...        0 min,  0.451 sec
     gradient                   ...        0 min,  0.119 sec
 * total energy  :  -134.5384192 Eh     change       -0.1400097E-04 Eh
   gradient norm :     0.0006092 Eh/α   predicted    -0.6125113E-05 ( -56.25%)
   displ. norm   :     0.2169535 α      lambda       -0.9893519E-05
   maximum displ.:     0.1353185 α      in ANC's #2, #1, #4, ...

........................................................................
.............................. CYCLE   41 ..............................
........................................................................

 iter      E             dE          RMSdq      gap      omega  full diag
   1   -136.7038573 -0.136704E+03  0.168E-02    2.37       0.0  T
   2   -136.7038575 -0.217360E-06  0.938E-03    2.37       1.1  T
   3   -136.7038574  0.959255E-07  0.195E-03    2.37       5.1  T
   4   -136.7038575 -0.130447E-06  0.838E-04    2.37      11.9  T
   5   -136.7038575 -0.231228E-07  0.274E-04    2.37      36.4  T
     SCC iter.                  ...        0 min,  0.756 sec
     gradient                   ...        0 min,  0.180 sec
 * total energy  :  -134.5384311 Eh     change       -0.1190430E-04 Eh
   gradient norm :     0.0005048 Eh/α   predicted    -0.5052056E-05 ( -57.56%)
   displ. norm   :     0.1925886 α      lambda       -0.9261559E-05
   maximum displ.:     0.1219575 α      in ANC's #2, #1, #4, ...

........................................................................
.............................. CYCLE   42 ..............................
........................................................................

 iter      E             dE          RMSdq      gap      omega  full diag
   1   -136.7036556 -0.136704E+03  0.146E-02    2.37       0.0  T
   2   -136.7036557 -0.188651E-06  0.799E-03    2.37       1.2  T
   3   -136.7036556  0.119575E-06  0.194E-03    2.37       5.1  T
   4   -136.7036558 -0.127513E-06  0.891E-04    2.37      11.2  T
   5   -136.7036558 -0.323999E-07  0.380E-04    2.37      26.2  T
     SCC iter.                  ...        0 min,  0.717 sec
     gradient                   ...        0 min,  0.170 sec
 * total energy  :  -134.5384424 Eh     change       -0.1135899E-04 Eh
   gradient norm :     0.0004653 Eh/α   predicted    -0.4708355E-05 ( -58.55%)
   displ. norm   :     0.1776383 α      lambda       -0.9620237E-05
   maximum displ.:     0.1111566 α      in ANC's #2, #1, #4, ...
 * RMSD in coord.:     0.3309802 α      energy gain  -0.3951297E-03 Eh

generating ANC from exact Hessian ...
Using Lindh-Hessian (1995)
 Shifting diagonal of input Hessian by    1.0077121520200339E-002
 Lowest  eigenvalues of input Hessian
    0.010000    0.000000    0.000000    0.000000    0.000000    0.000000
    0.000000    0.010156    0.010195    0.010306    0.010392    0.010484
    0.010603    0.010734    0.010937    0.010948    0.011112    0.011164
 Highest eigenvalues
    1.991984    2.002014    2.027390    2.074036    2.114123    2.127274


........................................................................
.............................. CYCLE   43 ..............................
........................................................................

 iter      E             dE          RMSdq      gap      omega  full diag
   1   -136.7037739 -0.136704E+03  0.133E-02    2.37       0.0  T
   2   -136.7037741 -0.155819E-06  0.710E-03    2.37       1.4  T
   3   -136.7037741  0.145418E-07  0.156E-03    2.37       6.4  T
   4   -136.7037741 -0.171008E-07  0.794E-04    2.37      12.5  T
   5   -136.7037741 -0.329086E-07  0.196E-04    2.37      50.8  T
     SCC iter.                  ...        0 min,  0.615 sec
     gradient                   ...        0 min,  0.124 sec
 * total energy  :  -134.5384544 Eh     change       -0.1196760E-04 Eh
   gradient norm :     0.0005697 Eh/α   predicted     0.0000000E+00 (-100.00%)
   displ. norm   :     0.0246135 α      lambda       -0.2989074E-06
   maximum displ.:     0.0105260 α      in ANC's #4, #2, #7, ...

........................................................................
.............................. CYCLE   44 ..............................
........................................................................

 iter      E             dE          RMSdq      gap      omega  full diag
   1   -136.7036590 -0.136704E+03  0.384E-03    2.37       0.0  T
   2   -136.7036590 -0.229653E-07  0.222E-03    2.37       4.5  T
   3   -136.7036590  0.182342E-07  0.672E-04    2.37      14.8  T
   4   -136.7036590 -0.216585E-07  0.236E-04    2.37      42.1  T
     SCC iter.                  ...        0 min,  0.484 sec
     gradient                   ...        0 min,  0.123 sec
 * total energy  :  -134.5384593 Eh     change       -0.4912685E-05 Eh
   gradient norm :     0.0003410 Eh/α   predicted    -0.1934970E-05 ( -60.61%)
   displ. norm   :     0.1073576 α      lambda       -0.1276793E-04
   maximum displ.:     0.0474121 α      in ANC's #4, #2, #7, ...

........................................................................
.............................. CYCLE   45 ..............................
........................................................................

 iter      E             dE          RMSdq      gap      omega  full diag
   1   -136.7034445 -0.136703E+03  0.157E-02    2.37       0.0  T
   2   -136.7034447 -0.206160E-06  0.865E-03    2.37       1.2  T
   3   -136.7034444  0.221420E-06  0.234E-03    2.37       4.3  T
   4   -136.7034447 -0.234678E-06  0.109E-03    2.37       9.2  T
   5   -136.7034447 -0.516077E-07  0.368E-04    2.37      27.0  T
   6   -136.7034447 -0.760386E-08  0.208E-04    2.37      47.8  T
     SCC iter.                  ...        0 min,  0.774 sec
     gradient                   ...        0 min,  0.189 sec
 * total energy  :  -134.5384714 Eh     change       -0.1215434E-04 Eh
   gradient norm :     0.0007611 Eh/α   predicted    -0.6418323E-05 ( -47.19%)
   displ. norm   :     0.0815344 α      lambda       -0.6191697E-05
   maximum displ.:     0.0393790 α      in ANC's #4, #2, #7, ...

........................................................................
.............................. CYCLE   46 ..............................
........................................................................

 iter      E             dE          RMSdq      gap      omega  full diag
   1   -136.7034631 -0.136703E+03  0.962E-03    2.37       0.0  T
   2   -136.7034633 -0.163321E-06  0.545E-03    2.37       1.8  T
   3   -136.7034632  0.796625E-07  0.156E-03    2.37       6.4  T
   4   -136.7034633 -0.922515E-07  0.563E-04    2.37      17.7  T
   5   -136.7034633 -0.181415E-07  0.242E-04    2.37      41.1  T
     SCC iter.                  ...        0 min,  0.757 sec
     gradient                   ...        0 min,  0.186 sec
 * total energy  :  -134.5384764 Eh     change       -0.4942935E-05 Eh
   gradient norm :     0.0008274 Eh/α   predicted    -0.3107201E-05 ( -37.14%)
   displ. norm   :     0.0810484 α      lambda       -0.6492291E-05
   maximum displ.:     0.0420819 α      in ANC's #4, #2, #6, ...

........................................................................
.............................. CYCLE   47 ..............................
........................................................................

 iter      E             dE          RMSdq      gap      omega  full diag
   1   -136.7035556 -0.136704E+03  0.122E-02    2.37       0.0  T
   2   -136.7035558 -0.235219E-06  0.588E-03    2.37       1.7  T
   3   -136.7035558 -0.443225E-08  0.164E-03    2.37       6.1  T
   4   -136.7035558  0.220728E-07  0.906E-04    2.37      11.0  T
   5   -136.7035559 -0.437727E-07  0.386E-04    2.37      25.8  T
     SCC iter.                  ...        0 min,  0.613 sec
     gradient                   ...        0 min,  0.121 sec
 * total energy  :  -134.5384829 Eh     change       -0.6520149E-05 Eh
   gradient norm :     0.0006487 Eh/α   predicted    -0.3256124E-05 ( -50.06%)
   displ. norm   :     0.0889337 α      lambda       -0.7332254E-05
   maximum displ.:     0.0481872 α      in ANC's #4, #2, #6, ...

........................................................................
.............................. CYCLE   48 ..............................
........................................................................

 iter      E             dE          RMSdq      gap      omega  full diag
   1   -136.7036823 -0.136704E+03  0.110E-02    2.37       0.0  T
   2   -136.7036824 -0.100248E-06  0.595E-03    2.37       1.7  T
   3   -136.7036824  0.157112E-07  0.135E-03    2.37       7.4  T
   4   -136.7036824 -0.179241E-07  0.588E-04    2.37      16.9  T
   5   -136.7036824 -0.148341E-07  0.193E-04    2.37      51.5  T
     SCC iter.                  ...        0 min,  0.755 sec
     gradient                   ...        0 min,  0.124 sec
 * total energy  :  -134.5384915 Eh     change       -0.8622173E-05 Eh
   gradient norm :     0.0004374 Eh/α   predicted    -0.3679143E-05 ( -57.33%)
   displ. norm   :     0.1361534 α      lambda       -0.9394562E-05
   maximum displ.:     0.0742050 α      in ANC's #4, #2, #6, ...

........................................................................
.............................. CYCLE   49 ..............................
........................................................................

 iter      E             dE          RMSdq      gap      omega  full diag
   1   -136.7035843 -0.136704E+03  0.171E-02    2.37       0.0  T
   2   -136.7035845 -0.208157E-06  0.920E-03    2.37       1.1  T
   3   -136.7035844  0.420947E-07  0.202E-03    2.37       4.9  T
   4   -136.7035845 -0.250434E-07  0.102E-03    2.37       9.8  T
   5   -136.7035845 -0.625005E-07  0.175E-04    2.37      57.0  T
   6   -136.7035845 -0.202368E-08  0.692E-05    2.37     143.8  T
     SCC iter.                  ...        0 min,  0.927 sec
     gradient                   ...        0 min,  0.184 sec
 * total energy  :  -134.5385016 Eh     change       -0.1010744E-04 Eh
   gradient norm :     0.0006549 Eh/α   predicted    -0.4736722E-05 ( -53.14%)
   displ. norm   :     0.1312592 α      lambda       -0.6557422E-05
   maximum displ.:     0.0731274 α      in ANC's #4, #2, #6, ...

........................................................................
.............................. CYCLE   50 ..............................
........................................................................

 iter      E             dE          RMSdq      gap      omega  full diag
   1   -136.7035184 -0.136704E+03  0.137E-02    2.37       0.0  T
   2   -136.7035185 -0.101017E-06  0.767E-03    2.37       1.3  T
   3   -136.7035184  0.502251E-07  0.140E-03    2.37       7.1  T
   4   -136.7035185 -0.476548E-07  0.686E-04    2.37      14.5  T
   5   -136.7035185 -0.290063E-07  0.153E-04    2.37      65.2  T
     SCC iter.                  ...        0 min,  0.786 sec
     gradient                   ...        0 min,  0.188 sec
 * total energy  :  -134.5385088 Eh     change       -0.7125827E-05 Eh
   gradient norm :     0.0007316 Eh/α   predicted    -0.3306832E-05 ( -53.59%)
   displ. norm   :     0.1345899 α      lambda       -0.6465121E-05
   maximum displ.:     0.0765636 α      in ANC's #4, #2, #6, ...

........................................................................
.............................. CYCLE   51 ..............................
........................................................................

 iter      E             dE          RMSdq      gap      omega  full diag
   1   -136.7035120 -0.136704E+03  0.153E-02    2.37       0.0  T
   2   -136.7035123 -0.234293E-06  0.764E-03    2.37       1.3  T
   3   -136.7035122  0.200957E-07  0.197E-03    2.37       5.1  T
   4   -136.7035122  0.381920E-07  0.112E-03    2.37       8.9  T
   5   -136.7035123 -0.972436E-07  0.252E-04    2.37      39.5  T
   6   -136.7035123 -0.625604E-08  0.104E-04    2.37      95.3  T
     SCC iter.                  ...        0 min,  1.007 sec
     gradient                   ...        0 min,  0.184 sec
 * total energy  :  -134.5385160 Eh     change       -0.7276127E-05 Eh
   gradient norm :     0.0005850 Eh/α   predicted    -0.3260270E-05 ( -55.19%)
   displ. norm   :     0.1413155 α      lambda       -0.6755639E-05
   maximum displ.:     0.0815638 α      in ANC's #4, #2, #6, ...

........................................................................
.............................. CYCLE   52 ..............................
........................................................................

 iter      E             dE          RMSdq      gap      omega  full diag
   1   -136.7034871 -0.136703E+03  0.134E-02    2.37       0.0  T
   2   -136.7034873 -0.164355E-06  0.733E-03    2.37       1.4  T
   3   -136.7034872  0.980713E-07  0.194E-03    2.37       5.1  T
   4   -136.7034873 -0.109475E-06  0.809E-04    2.37      12.3  T
   5   -136.7034873 -0.212426E-07  0.356E-04    2.37      27.9  T
     SCC iter.                  ...        0 min,  0.552 sec
     gradient                   ...        0 min,  0.153 sec
 * total energy  :  -134.5385237 Eh     change       -0.7660517E-05 Eh
   gradient norm :     0.0003579 Eh/α   predicted    -0.3410088E-05 ( -55.48%)
   displ. norm   :     0.1392564 α      lambda       -0.6068509E-05
   maximum displ.:     0.0816727 α      in ANC's #4, #2, #6, ...

........................................................................
.............................. CYCLE   53 ..............................
........................................................................

 iter      E             dE          RMSdq      gap      omega  full diag
   1   -136.7035806 -0.136704E+03  0.144E-02    2.37       0.0  T
   2   -136.7035808 -0.169866E-06  0.761E-03    2.37       1.3  T
   3   -136.7035807  0.123198E-06  0.205E-03    2.37       4.9  T
   4   -136.7035808 -0.980696E-07  0.105E-03    2.37       9.5  T
   5   -136.7035808 -0.631163E-07  0.332E-04    2.37      30.0  T
   6   -136.7035808 -0.117767E-07  0.125E-04    2.37      79.4  T
     SCC iter.                  ...        0 min,  1.003 sec
     gradient                   ...        0 min,  0.157 sec
 * total energy  :  -134.5385306 Eh     change       -0.6850553E-05 Eh
   gradient norm :     0.0004591 Eh/α   predicted    -0.3063073E-05 ( -55.29%)
   displ. norm   :     0.1356204 α      lambda       -0.5498120E-05
   maximum displ.:     0.0795354 α      in ANC's #4, #2, #6, ...

........................................................................
.............................. CYCLE   54 ..............................
........................................................................

 iter      E             dE          RMSdq      gap      omega  full diag
   1   -136.7036270 -0.136704E+03  0.131E-02    2.36       0.0  T
   2   -136.7036271 -0.133590E-06  0.718E-03    2.36       1.4  T
   3   -136.7036270  0.145195E-06  0.197E-03    2.36       5.1  T
   4   -136.7036271 -0.142134E-06  0.850E-04    2.36      11.7  T
   5   -136.7036272 -0.322032E-07  0.374E-04    2.36      26.6  T
     SCC iter.                  ...        0 min,  0.665 sec
     gradient                   ...        0 min,  0.181 sec
 * total energy  :  -134.5385372 Eh     change       -0.6625210E-05 Eh
   gradient norm :     0.0005930 Eh/α   predicted    -0.2776337E-05 ( -58.09%)
   displ. norm   :     0.1562204 α      lambda       -0.6314996E-05
   maximum displ.:     0.0908897 α      in ANC's #4, #2, #5, ...

........................................................................
.............................. CYCLE   55 ..............................
........................................................................

 iter      E             dE          RMSdq      gap      omega  full diag
   1   -136.7036821 -0.136704E+03  0.147E-02    2.36       0.0  T
   2   -136.7036822 -0.120972E-06  0.823E-03    2.36       1.2  T
   3   -136.7036820  0.206959E-06  0.196E-03    2.36       5.1  T
   4   -136.7036822 -0.210846E-06  0.796E-04    2.36      12.5  T
   5   -136.7036822 -0.333997E-07  0.322E-04    2.36      30.9  T
     SCC iter.                  ...        0 min,  0.550 sec
     gradient                   ...        0 min,  0.173 sec
 * total energy  :  -134.5385448 Eh     change       -0.7636949E-05 Eh
   gradient norm :     0.0005646 Eh/α   predicted    -0.3195069E-05 ( -58.16%)
   displ. norm   :     0.1724743 α      lambda       -0.6031260E-05
   maximum displ.:     0.1000202 α      in ANC's #4, #2, #5, ...

........................................................................
.............................. CYCLE   56 ..............................
........................................................................

 iter      E             dE          RMSdq      gap      omega  full diag
   1   -136.7036534 -0.136704E+03  0.161E-02    2.36       0.0  T
   2   -136.7036536 -0.162778E-06  0.901E-03    2.36       1.1  T
   3   -136.7036534  0.181787E-06  0.208E-03    2.36       4.8  T
   4   -136.7036536 -0.183934E-06  0.889E-04    2.36      11.2  T
   5   -136.7036536 -0.394622E-07  0.345E-04    2.36      28.9  T
     SCC iter.                  ...        0 min,  0.728 sec
     gradient                   ...        0 min,  0.186 sec
 * total energy  :  -134.5385515 Eh     change       -0.6705686E-05 Eh
   gradient norm :     0.0003685 Eh/α   predicted    -0.3060205E-05 ( -54.36%)
   displ. norm   :     0.1293776 α      lambda       -0.3393918E-05
   maximum displ.:     0.0750736 α      in ANC's #4, #2, #5, ...

........................................................................
.............................. CYCLE   57 ..............................
........................................................................

 iter      E             dE          RMSdq      gap      omega  full diag
   1   -136.7036657 -0.136704E+03  0.117E-02    2.35       0.0  T
   2   -136.7036658 -0.752399E-07  0.661E-03    2.35       1.5  T
   3   -136.7036657  0.755635E-07  0.131E-03    2.35       7.6  T
   4   -136.7036658 -0.827780E-07  0.546E-04    2.35      18.2  T
   5   -136.7036658 -0.148536E-07  0.171E-04    2.35      58.1  T
     SCC iter.                  ...        0 min,  0.720 sec
     gradient                   ...        0 min,  0.125 sec
 * total energy  :  -134.5385552 Eh     change       -0.3701033E-05 Eh
   gradient norm :     0.0002221 Eh/α   predicted    -0.1710961E-05 ( -53.77%)
   displ. norm   :     0.0915287 α      lambda       -0.2294750E-05
   maximum displ.:     0.0523364 α      in ANC's #4, #2, #5, ...

........................................................................
.............................. CYCLE   58 ..............................
........................................................................

 iter      E             dE          RMSdq      gap      omega  full diag
   1   -136.7036759 -0.136704E+03  0.859E-03    2.35       0.0  T
   2   -136.7036760 -0.468625E-07  0.475E-03    2.35       2.1  T
   3   -136.7036759  0.286628E-07  0.103E-03    2.35       9.6  T
   4   -136.7036760 -0.316773E-07  0.468E-04    2.35      21.3  T
   5   -136.7036760 -0.100462E-07  0.105E-04    2.35      95.0  T
     SCC iter.                  ...        0 min,  0.474 sec
     gradient                   ...        0 min,  0.139 sec
 * total energy  :  -134.5385579 Eh     change       -0.2715920E-05 Eh
   gradient norm :     0.0002313 Eh/α   predicted    -0.1153511E-05 ( -57.53%)
   displ. norm   :     0.0924645 α      lambda       -0.2730313E-05
   maximum displ.:     0.0504060 α      in ANC's #2, #4, #5, ...

........................................................................
.............................. CYCLE   59 ..............................
........................................................................

 iter      E             dE          RMSdq      gap      omega  full diag
   1   -136.7036532 -0.136704E+03  0.894E-03    2.35       0.0  T
   2   -136.7036532 -0.421234E-07  0.497E-03    2.35       2.0  T
   3   -136.7036532  0.236347E-07  0.967E-04    2.35      10.3  T
   4   -136.7036532 -0.238205E-07  0.470E-04    2.35      21.2  T
     SCC iter.                  ...        0 min,  0.636 sec
     gradient                   ...        0 min,  0.169 sec
 * total energy  :  -134.5385612 Eh     change       -0.3276714E-05 Eh
   gradient norm :     0.0003285 Eh/α   predicted    -0.1372748E-05 ( -58.11%)
   displ. norm   :     0.1030850 α      lambda       -0.3124650E-05
   maximum displ.:     0.0569418 α      in ANC's #2, #4, #3, ...

........................................................................
.............................. CYCLE   60 ..............................
........................................................................

 iter      E             dE          RMSdq      gap      omega  full diag
   1   -136.7035847 -0.136704E+03  0.105E-02    2.35       0.0  T
   2   -136.7035848 -0.517943E-07  0.583E-03    2.35       1.7  T
   3   -136.7035847  0.682725E-07  0.123E-03    2.35       8.1  T
   4   -136.7035847 -0.572393E-07  0.629E-04    2.35      15.8  T
   5   -136.7035848 -0.265123E-07  0.204E-04    2.35      48.9  T
     SCC iter.                  ...        0 min,  0.639 sec
     gradient                   ...        0 min,  0.122 sec
 * total energy  :  -134.5385648 Eh     change       -0.3580906E-05 Eh
   gradient norm :     0.0003693 Eh/α   predicted    -0.1574249E-05 ( -56.04%)
   displ. norm   :     0.0876455 α      lambda       -0.2366292E-05
   maximum displ.:     0.0490324 α      in ANC's #2, #4, #3, ...

........................................................................
.............................. CYCLE   61 ..............................
........................................................................

 iter      E             dE          RMSdq      gap      omega  full diag
   1   -136.7035868 -0.136704E+03  0.951E-03    2.35       0.0  T
   2   -136.7035868 -0.562865E-07  0.518E-03    2.35       1.9  T
   3   -136.7035868  0.434638E-07  0.121E-03    2.35       8.2  T
[...]
    67   1 H        0.924     0.040     2.448     2.447
    68   1 H        0.925     0.047     2.359     2.402
    69   1 H        0.925     0.029     2.600     2.521
    70   1 H        0.925     0.047     2.355     2.400
    71   1 H        0.925     0.046     2.366     2.406
    72   1 H        0.925     0.048     2.339     2.392
    73   1 H        0.925     0.040     2.443     2.444
    74   1 H        0.926     0.054     2.271     2.357
    75   1 H        0.926     0.052     2.299     2.371
    76   1 H        0.926     0.055     2.259     2.351
    77   1 H        0.924     0.033     2.549     2.497
    78   1 H        0.925     0.038     2.472     2.459
    79   1 H        0.925     0.047     2.362     2.403
    80   1 H        0.925     0.048     2.350     2.398
    81   1 H        0.925     0.039     2.458     2.452
    82   1 H        0.925     0.031     2.571     2.507
    83   1 H        0.925     0.048     2.340     2.392
    84   1 H        0.924     0.059     2.207     2.323
    85   1 H        0.925     0.080     1.980     2.200
    86   1 H        0.925     0.074     2.045     2.236
    87   1 H        0.926     0.048     2.346     2.395
    88   1 H        0.926     0.053     2.283     2.363
    89   1 H        0.926     0.046     2.370     2.408
    90   1 H        0.926     0.049     2.332     2.388
    91   1 H        0.926     0.046     2.373     2.409
    92   1 H        0.926     0.036     2.499     2.472
    93   1 H        0.926     0.039     2.464     2.455
    94   1 H        0.926     0.051     2.304     2.374
    95   1 H        0.926     0.048     2.347     2.396
    96   1 H        0.926     0.052     2.301     2.372
    97   1 H        0.926     0.049     2.334     2.389
    98   1 H        0.926     0.040     2.449     2.447
    99   1 H        0.924     0.050     2.318     2.381
   100   1 H        0.925     0.059     2.210     2.325
   101   1 H        0.925     0.068     2.112     2.272

 Mol. C6AA /au·bohr⁶  :     118481.955829
 Mol. C8AA /au·bohr⁸  :    3064638.634090
 Mol. α(0) /au        :        543.818725


Wiberg/Mayer (AO) data.
largest (>0.10) Wiberg bond orders for each atom

 ---------------------------------------------------------------------------
     #   Z sym  total        # sym  WBO       # sym  WBO       # sym  WBO
 ---------------------------------------------------------------------------
     1   6 C    3.992 --     2 C    1.007    49 H    0.985    50 H    0.984
                            51 H    0.984
     2   6 C    3.992 --     3 C    1.010     1 C    1.007     4 C    0.986
                            52 H    0.945
     3   6 C    3.994 --     2 C    1.010    54 H    0.984    55 H    0.984
                            53 H    0.979
     4   6 C    3.959 --     2 C    0.986     5 N    0.964    57 H    0.960
                            56 H    0.953
     5   7 N    3.387 --    10 P    1.221     4 C    0.964     6 C    0.951
     6   6 C    3.957 --     7 C    0.986    59 H    0.960    58 H    0.953
                             5 N    0.951
     7   6 C    3.990 --     8 C    1.011     9 C    1.003     6 C    0.986
                            60 H    0.962
     8   6 C    3.994 --     7 C    1.011    63 H    0.984    61 H    0.983
                            62 H    0.982
     9   6 C    3.992 --     7 C    1.003    66 H    0.986    64 H    0.986
                            65 H    0.983
    10  15 P    5.146 --    25 N    1.223     5 N    1.221    47 N    1.182
                            11 S    1.053
    11  16 S    2.481 --    12 S    1.108    10 P    1.053
    12  16 S    2.331 --    11 S    1.108    13 C    0.978
    13   6 C    3.939 --    14 C    1.381    21 C    1.362    12 S    0.978
    14   6 C    3.984 --    18 C    1.402    13 C    1.381    15 C    1.002
                            20 C    0.103
    15   6 C    3.993 --    14 C    1.002    16 C    0.995    17 C    0.992
                            67 H    0.953
    16   6 C    3.994 --    15 C    0.995    69 H    0.985    68 H    0.985
                            70 H    0.983
    17   6 C    3.993 --    15 C    0.992    73 H    0.987    72 H    0.984
                            71 H    0.983
    18   6 C    3.989 --    19 C    1.445    14 C    1.402    74 H    0.962
                            21 C    0.103
    19   6 C    3.981 --    18 C    1.445    20 C    1.431    75 H    0.969
    20   6 C    3.989 --    19 C    1.431    21 C    1.415    76 H    0.962
                            14 C    0.103
    21   6 C    3.984 --    20 C    1.415    13 C    1.362    22 C    1.003
                            18 C    0.103
    22   6 C    3.995 --    24 C    1.007    21 C    1.003    23 C    0.987
                            77 H    0.952
    23   6 C    3.994 --    22 C    0.987    80 H    0.986    79 H    0.981
                            78 H    0.979
    24   6 C    3.995 --    22 C    1.007    82 H    0.984    81 H    0.983
                            83 H    0.983
    25   7 N    3.445 --    10 P    1.223    27 C    0.992    26 C    0.969
    26   6 C    3.957 --    86 H    0.977    84 H    0.972    25 N    0.969
                            85 H    0.958
    27   6 C    3.949 --    36 C    1.450    28 C    1.282    25 N    0.992
    28   6 C    3.988 --    29 C    1.559    27 C    1.282    87 H    0.963
    29   6 C    3.984 --    28 C    1.559    30 C    1.271    88 H    0.966
                            36 C    0.105
    30   6 C    3.986 --    31 C    1.281    29 C    1.271    35 C    1.254
    31   6 C    3.989 --    32 C    1.554    30 C    1.281    89 H    0.967
                            34 C    0.118
    32   6 C    3.986 --    31 C    1.554    33 C    1.323    90 H    0.970
    33   6 C    3.990 --    34 C    1.551    32 C    1.323    91 H    0.970
    34   6 C    3.989 --    33 C    1.551    35 C    1.284    92 H    0.965
                            31 C    0.118
    35   6 C    3.987 --    34 C    1.284    30 C    1.254    36 C    1.231
    36   6 C    3.985 --    27 C    1.450    35 C    1.231    37 C    1.033
                            29 C    0.105
    37   6 C    3.986 --    38 C    1.451    46 C    1.232    36 C    1.033
                            40 C    0.104
    38   6 C    3.951 --    37 C    1.451    39 C    1.285    47 N    0.958
    39   6 C    3.986 --    40 C    1.557    38 C    1.285    93 H    0.961
    40   6 C    3.984 --    39 C    1.557    41 C    1.271    94 H    0.966
                            37 C    0.104
    41   6 C    3.988 --    42 C    1.283    40 C    1.271    46 C    1.254
    42   6 C    3.988 --    43 C    1.553    41 C    1.283    95 H    0.967
                            45 C    0.117
    43   6 C    3.986 --    42 C    1.553    44 C    1.324    96 H    0.969
    44   6 C    3.989 --    45 C    1.551    43 C    1.324    97 H    0.970
    45   6 C    3.988 --    44 C    1.551    46 C    1.286    98 H    0.966
                            42 C    0.117
    46   6 C    3.987 --    45 C    1.286    41 C    1.254    37 C    1.232
    47   7 N    3.385 --    10 P    1.182    48 C    0.975    38 C    0.958
    48   6 C    3.961 --    47 N    0.975   101 H    0.973    99 H    0.973
                           100 H    0.967
    49   1 H    0.997 --     1 C    0.985
    50   1 H    0.997 --     1 C    0.984
    51   1 H    0.998 --     1 C    0.984
    52   1 H    0.999 --     2 C    0.945
    53   1 H    0.999 --     3 C    0.979
    54   1 H    0.997 --     3 C    0.984
    55   1 H    0.997 --     3 C    0.984
    56   1 H    0.996 --     4 C    0.953
    57   1 H    0.994 --     4 C    0.960
    58   1 H    0.997 --     6 C    0.953
    59   1 H    0.998 --     6 C    0.960
    60   1 H    0.998 --     7 C    0.962
    61   1 H    0.997 --     8 C    0.983
    62   1 H    0.999 --     8 C    0.982
    63   1 H    0.998 --     8 C    0.984
    64   1 H    0.998 --     9 C    0.986
    65   1 H    0.996 --     9 C    0.983
    66   1 H    0.998 --     9 C    0.986
    67   1 H    0.998 --    15 C    0.953
    68   1 H    0.997 --    16 C    0.985
    69   1 H    0.999 --    16 C    0.985
    70   1 H    0.998 --    16 C    0.983
    71   1 H    0.997 --    17 C    0.983
    72   1 H    0.997 --    17 C    0.984
    73   1 H    0.998 --    17 C    0.987
    74   1 H    0.996 --    18 C    0.962
    75   1 H    0.996 --    19 C    0.969
    76   1 H    0.996 --    20 C    0.962
    77   1 H    0.999 --    22 C    0.952
    78   1 H    0.999 --    23 C    0.979
    79   1 H    0.997 --    23 C    0.981
    80   1 H    0.997 --    23 C    0.986
    81   1 H    0.998 --    24 C    0.983
    82   1 H    0.999 --    24 C    0.984
    83   1 H    0.997 --    24 C    0.983
    84   1 H    0.996 --    26 C    0.972
    85   1 H    0.993 --    26 C    0.958
    86   1 H    0.994 --    26 C    0.977
    87   1 H    0.997 --    28 C    0.963
    88   1 H    0.996 --    29 C    0.966
    89   1 H    0.997 --    31 C    0.967
    90   1 H    0.997 --    32 C    0.970
    91   1 H    0.997 --    33 C    0.970
    92   1 H    0.998 --    34 C    0.965
    93   1 H    0.997 --    39 C    0.961
    94   1 H    0.996 --    40 C    0.966
    95   1 H    0.997 --    42 C    0.967
    96   1 H    0.997 --    43 C    0.969
    97   1 H    0.997 --    44 C    0.970
    98   1 H    0.998 --    45 C    0.966
    99   1 H    0.997 --    48 C    0.973
   100   1 H    0.996 --    48 C    0.967
   101   1 H    0.995 --    48 C    0.973
 ---------------------------------------------------------------------------

Topologies differ in total number of bonds
Writing topology from bond orders to xtbtopo.mol

molecular dipole:
                 x           y           z       tot (Debye)
 q only:       -0.719       0.759       0.043
   full:       -0.708       0.557      -0.274       2.393
molecular quadrupole (traceless):
                xx          xy          yy          xz          yz          zz
 q only:       11.522      -4.495       4.752     -10.935     -10.509     -16.274
  q+dip:       10.673      -3.934       2.076      -8.648     -12.107     -12.749
   full:       12.073      -6.304       2.241      -9.667     -10.794     -14.314

           -------------------------------------------------
          |                Geometry Summary                 |
           -------------------------------------------------

      molecular mass/u    :      694.9952140
   center of mass at/Å    :        0.0141313      -0.2114023       0.1950210
  moments of inertia/u·Å² :        0.6245072E+04   0.8303770E+04   0.1173277E+05
rotational constants/cm⁻¹ :        0.2699349E-02   0.2030118E-02   0.1436799E-02

 * 102 selected distances

     #   Z          #   Z                                           value/Å
     1   6 C        2   6 C                                       1.5268965
     2   6 C        3   6 C                                       1.5258547
     2   6 C        4   6 C                                       1.5353857
     4   6 C        5   7 N                                       1.4603029
     5   7 N        6   6 C                                       1.4671381
     6   6 C        7   6 C                                       1.5337907
     7   6 C        8   6 C                                       1.5244660
     7   6 C        9   6 C                                       1.5284318
     5   7 N       10  15 P                                       1.6598071
    10  15 P       11  16 S                                       2.0937677 (max)
    11  16 S       12  16 S                                       2.0720912
    13   6 C       14   6 C                                       1.3965072
    15   6 C       16   6 C                                       1.5304472
    15   6 C       17   6 C                                       1.5306919
    14   6 C       18   6 C                                       1.3902590
    18   6 C       19   6 C                                       1.3801320
    19   6 C       20   6 C                                       1.3828905
    13   6 C       21   6 C                                       1.4002604
    20   6 C       21   6 C                                       1.3875545
    22   6 C       23   6 C                                       1.5330191
    22   6 C       24   6 C                                       1.5268400
    10  15 P       25   7 N                                       1.6541217
    25   7 N       26   6 C                                       1.4592352
    25   7 N       27   6 C                                       1.4234980
    27   6 C       28   6 C                                       1.4080298
    28   6 C       29   6 C                                       1.3634071
    29   6 C       30   6 C                                       1.4096531
    30   6 C       31   6 C                                       1.4103164
    31   6 C       32   6 C                                       1.3665226
    32   6 C       33   6 C                                       1.4028313
    33   6 C       34   6 C                                       1.3677045
    30   6 C       35   6 C                                       1.4192309
    34   6 C       35   6 C                                       1.4119875
    27   6 C       36   6 C                                       1.3792987
    35   6 C       36   6 C                                       1.4251382
    37   6 C       38   6 C                                       1.3773966
    38   6 C       39   6 C                                       1.4061439
    39   6 C       40   6 C                                       1.3647550
    40   6 C       41   6 C                                       1.4111433
    41   6 C       42   6 C                                       1.4098298
    42   6 C       43   6 C                                       1.3668960
    43   6 C       44   6 C                                       1.4027842
    44   6 C       45   6 C                                       1.3675820
    37   6 C       46   6 C                                       1.4240704
    41   6 C       46   6 C                                       1.4200325
    45   6 C       46   6 C                                       1.4108415
    10  15 P       47   7 N                                       1.6691760
    38   6 C       47   7 N                                       1.4345122
    47   7 N       48   6 C                                       1.4537767
     1   6 C       49   1 H                                       1.0869988
     1   6 C       50   1 H                                       1.0865640
     1   6 C       51   1 H                                       1.0874794
     2   6 C       52   1 H                                       1.0992830
     3   6 C       53   1 H                                       1.0868669
     3   6 C       54   1 H                                       1.0875335
     3   6 C       55   1 H                                       1.0874355
     4   6 C       56   1 H                                       1.0954179
     4   6 C       57   1 H                                       1.0889928
     6   6 C       58   1 H                                       1.0949603
     6   6 C       59   1 H                                       1.0945063
     7   6 C       60   1 H                                       1.0942786
     8   6 C       61   1 H                                       1.0867694
     8   6 C       62   1 H                                       1.0876315
     8   6 C       63   1 H                                       1.0874888
     9   6 C       64   1 H                                       1.0874237
     9   6 C       65   1 H                                       1.0861297
     9   6 C       66   1 H                                       1.0877439
    15   6 C       67   1 H                                       1.0948470
    16   6 C       68   1 H                                       1.0868609
    16   6 C       69   1 H                                       1.0884371
    16   6 C       70   1 H                                       1.0863647
    17   6 C       71   1 H                                       1.0863163
    17   6 C       72   1 H                                       1.0869660
    17   6 C       73   1 H                                       1.0876751
    18   6 C       74   1 H                                       1.0780761
    19   6 C       75   1 H                                       1.0790633
    20   6 C       76   1 H                                       1.0769000 (min)
    22   6 C       77   1 H                                       1.0966114
    23   6 C       78   1 H                                       1.0888803
    23   6 C       79   1 H                                       1.0862579
    23   6 C       80   1 H                                       1.0876591
    24   6 C       81   1 H                                       1.0871845
    24   6 C       82   1 H                                       1.0879968
    24   6 C       83   1 H                                       1.0866647
    26   6 C       84   1 H                                       1.0930062
    26   6 C       85   1 H                                       1.0880173
    26   6 C       86   1 H                                       1.0890577
    28   6 C       87   1 H                                       1.0771681
    29   6 C       88   1 H                                       1.0793071
    31   6 C       89   1 H                                       1.0800076
    32   6 C       90   1 H                                       1.0789261
    33   6 C       91   1 H                                       1.0792325
    34   6 C       92   1 H                                       1.0789427
    39   6 C       93   1 H                                       1.0794269
    40   6 C       94   1 H                                       1.0795372
    42   6 C       95   1 H                                       1.0797934
    43   6 C       96   1 H                                       1.0789582
    44   6 C       97   1 H                                       1.0791655
    45   6 C       98   1 H                                       1.0792494
    48   6 C       99   1 H                                       1.0924081
    48   6 C      100   1 H                                       1.0890841
    48   6 C      101   1 H                                       1.0898891

 * 6 distinct bonds (by element types)

   Z      Z             #   av. dist./Å        max./Å        min./Å
   1 H    6 C          53     1.0863668     1.0992830     1.0769000
   6 C    6 C          38     1.4305006     1.5353857     1.3634071
   6 C    7 N           6     1.4497438     1.4671381     1.4234980
   7 N   15 P           3     1.6610349     1.6691760     1.6541217
  15 P   16 S           1     2.0937677     2.0937677     2.0937677
  16 S   16 S           1     2.0720912     2.0720912     2.0720912


optimized geometry written to: xtbopt.xyz


           -------------------------------------------------
          | TOTAL ENERGY             -134.538637173777 Eh   |
          | GRADIENT NORM               0.000028325071 Eh/α |
          | HOMO-LUMO GAP               2.354229565568 eV   |
           -------------------------------------------------

------------------------------------------------------------------------
 * finished run on 2024/12/16 at 17:17:26.312     
------------------------------------------------------------------------
 total:
 * wall-time:     0 d,  0 h,  1 min, 54.676 sec
 *  cpu-time:     0 d,  0 h, 14 min, 56.594 sec
 * ratio c/w:     7.819 speedup
 SCF:
 * wall-time:     0 d,  0 h,  0 min,  2.026 sec
 *  cpu-time:     0 d,  0 h,  0 min, 15.978 sec
 * ratio c/w:     7.886 speedup
 ANC optimizer:
 * wall-time:     0 d,  0 h,  1 min, 52.321 sec
 *  cpu-time:     0 d,  0 h, 14 min, 39.038 sec
 * ratio c/w:     7.826 speedup

