101
 energy: -134.500913667074 gnorm: 0.135014294444 xtb: 6.7.1 (edcfbbe)
C            0.95545100000000        4.68433100000000       -2.93783700000000
C            0.18266900000000        3.45283400000000       -2.45165500000000
C           -0.94675000000000        3.14968100000000       -3.43605400000000
C           -0.32275100000000        3.69474500000000       -1.01476200000000
N           -0.90354000000000        2.54108100000000       -0.32611600000000
C           -2.36993500000000        2.44814500000000       -0.37256600000000
C           -3.22738900000000        3.70574700000000       -0.08817000000000
C           -2.92510900000000        4.34570800000000        1.26743900000000
C           -4.71538800000000        3.33441300000000       -0.14472700000000
P            0.01820700000000        1.27634100000000        0.21426200000000
S            2.05968500000000        1.78228700000000        0.30374000000000
S            3.00290000000000        0.14011200000000        1.09671400000000
C            3.70862700000000       -0.70237900000000       -0.34281100000000
C            4.74308400000000       -0.09154800000000       -1.11394300000000
C            5.39861800000000        1.24877000000000       -0.76240200000000
C            5.17630700000000        2.29757900000000       -1.85970000000000
C            6.89887100000000        1.08376100000000       -0.47332900000000
C            5.24543800000000       -0.77445100000000       -2.24171500000000
C            4.79383900000000       -2.04171700000000       -2.57896400000000
C            3.83256800000000       -2.66300300000000       -1.79402400000000
C            3.26551000000000       -2.02179400000000       -0.67326400000000
C            2.25804000000000       -2.79850900000000        0.18297500000000
C            2.99330700000000       -3.54319600000000        1.30251300000000
C            1.37536000000000       -3.79173800000000       -0.58558500000000
N           -0.56036100000000        0.91816200000000        1.71798200000000
C           -0.40299200000000        2.00267900000000        2.68210600000000
C           -0.48213300000000       -0.39333700000000        2.26904400000000
C            0.30710100000000       -0.64295700000000        3.41028100000000
C            0.36058300000000       -1.89369600000000        4.01221000000000
C           -0.34747900000000       -2.96173700000000        3.47566200000000
C           -0.24792600000000       -4.22390100000000        4.08819000000000
C           -0.89281000000000       -5.33632500000000        3.55632500000000
C           -1.63318700000000       -5.19870300000000        2.39446100000000
C           -1.74176300000000       -3.94400800000000        1.78509700000000
C           -1.13866400000000       -2.76934400000000        2.31385500000000
C           -1.25797200000000       -1.45102500000000        1.71128600000000
C           -2.14419700000000       -1.20521800000000        0.60284700000000
C           -1.63501000000000       -0.66149900000000       -0.60834300000000
C           -2.44041800000000       -0.68741200000000       -1.76449300000000
C           -3.75121900000000       -1.14826100000000       -1.74137300000000
C           -4.32767700000000       -1.55674800000000       -0.54585400000000
C           -5.67971100000000       -1.94403100000000       -0.52646200000000
C           -6.30428600000000       -2.31202400000000        0.66257500000000
C           -5.58431700000000       -2.28539200000000        1.84665700000000
C           -4.23709500000000       -1.91190300000000        1.83205300000000
C           -3.54806800000000       -1.56648300000000        0.63933800000000
N           -0.33435600000000       -0.08200400000000       -0.65095300000000
C            0.35197600000000       -0.20396700000000       -1.92925100000000
H            0.31261700000000        5.57055000000000       -2.96660400000000
H            1.35502600000000        4.52305200000000       -3.94375900000000
H            1.80217200000000        4.89942200000000       -2.28014400000000
H            0.88551100000000        2.61618100000000       -2.45513000000000
H           -1.44734900000000        2.20825200000000       -3.20086600000000
H           -0.55977500000000        3.06096800000000       -4.45641900000000
H           -1.70020000000000        3.94384800000000       -3.43253600000000
H            0.51143300000000        4.05712400000000       -0.40365300000000
H           -1.00090000000000        4.55192900000000       -1.02883200000000
H           -2.69291200000000        1.69565000000000        0.35655100000000
H           -2.66363400000000        2.06431800000000       -1.35380200000000
H           -3.06473900000000        4.45329200000000       -0.87260700000000
H           -3.58666700000000        5.19956100000000        1.45452000000000
H           -1.89809500000000        4.71978200000000        1.30729700000000
H           -3.06547600000000        3.62980800000000        2.08495000000000
H           -4.97189900000000        2.90290500000000       -1.11800800000000
H           -5.34632900000000        4.21914100000000        0.00272700000000
H           -4.97335600000000        2.60494800000000        0.63179000000000
H            4.97434700000000        1.65923500000000        0.15568400000000
H            5.58869500000000        3.26562000000000       -1.55157300000000
H            4.11046200000000        2.43708200000000       -2.06762400000000
H            5.66081200000000        2.01780800000000       -2.80077100000000
H            7.46941200000000        0.82056000000000       -1.37089400000000
H            7.31689200000000        2.01639500000000       -0.07953400000000
H            7.06992500000000        0.29954800000000        0.27158500000000
H            6.02532200000000       -0.32889100000000       -2.85660800000000
H            5.21805900000000       -2.55813200000000       -3.43789300000000
H            3.54215400000000       -3.67645500000000       -2.06396500000000
H            1.55815200000000       -2.09103000000000        0.63396400000000
H            3.57021900000000       -2.85865800000000        1.93406300000000
H            2.28461000000000       -4.06923700000000        1.94990900000000
H            3.68870500000000       -4.28648800000000        0.89461900000000
H            0.60394500000000       -4.20708300000000        0.07079200000000
H            0.86804800000000       -3.30678500000000       -1.42292900000000
H            1.94669400000000       -4.64242300000000       -0.97039400000000
H            0.63536400000000        2.11135400000000        3.01601700000000
H           -0.68278100000000        2.96531500000000        2.24764600000000
H           -1.05113000000000        1.86052100000000        3.55513400000000
H            0.92028800000000        0.13868500000000        3.85022000000000
H            0.98861700000000       -2.02517800000000        4.89137600000000
H            0.34567600000000       -4.35213100000000        4.99126400000000
H           -0.80428500000000       -6.30599500000000        4.04032800000000
H           -2.12684600000000       -6.05947500000000        1.95088200000000
H           -2.30701800000000       -3.89846800000000        0.85607000000000
H           -2.07225400000000       -0.30132100000000       -2.70930800000000
H           -4.32653200000000       -1.13075000000000       -2.66381200000000
H           -6.26377000000000       -1.95641500000000       -1.44513300000000
H           -7.35037500000000       -2.60505200000000        0.66408500000000
H           -6.06025700000000       -2.54780000000000        2.78733800000000
H           -3.71604000000000       -1.87898700000000        2.78853000000000
H           -0.03110400000000        0.50211900000000       -2.66890100000000
H            1.42053000000000       -0.00880600000000       -1.83217800000000
H            0.26439800000000       -1.21747800000000       -2.33672200000000
101
 energy: -134.522518219532 gnorm: 0.058675974464 xtb: 6.7.1 (edcfbbe)
C            0.95754530448049        4.68533399652023       -2.93099727671614
C            0.18590782328478        3.45415888781909       -2.45108095108286
C           -0.94891396757641        3.14818476261042       -3.42785465034630
C           -0.30176925713210        3.70204141515745       -1.01093312532429
N           -0.91621934866282        2.56565060694056       -0.32177882127616
C           -2.38225607909983        2.44179957991406       -0.37080967143496
C           -3.22012310197754        3.70749524640383       -0.08385071355074
C           -2.91274476054077        4.34342709496596        1.26871004306468
C           -4.70235774339446        3.32314214016626       -0.14838737094044
P           -0.03194750110387        1.26669084532368        0.21970842664693
S            2.03372792872319        1.78094338898247        0.23844182171547
S            2.98140405949694        0.12349270368278        1.04312036441902
C            3.71781849675909       -0.72052371712340       -0.37010079444162
C            4.74818796282050       -0.09842829398903       -1.10864969161054
C            5.38404904399124        1.24178843452090       -0.75614897717265
C            5.16879039673111        2.28730744011719       -1.85759314952374
C            6.88563129718905        1.07402848566890       -0.47609693351561
C            5.24388956874883       -0.77326355651158       -2.22428828907471
C            4.78979477866988       -2.03464786319712       -2.56235533171130
C            3.83166810477149       -2.65850247550315       -1.78263470644164
C            3.26565123347386       -2.02453804639417       -0.67826325858724
C            2.25873253853837       -2.78183903914317        0.18338953193930
C            2.99602882509738       -3.53010300764884        1.30005593902127
C            1.38530147031450       -3.77900276931218       -0.58933071920154
N           -0.58525430970478        0.90655342723607        1.73734621722103
C           -0.40658744290670        2.00172513960485        2.68713647822483
C           -0.49101717625210       -0.41479417865708        2.27460980110150
C            0.31523578074015       -0.64744542543168        3.40197618221397
C            0.36762589189179       -1.87839580972588        4.00404266215649
C           -0.34515843225088       -2.96060692651099        3.47355618002394
C           -0.25044955087419       -4.22672510650905        4.08242784466096
C           -0.89347572859599       -5.31881590381612        3.55097798230130
C           -1.63394618571921       -5.16796631429867        2.37973870057265
C           -1.74890022332148       -3.93067077966258        1.77373471152079
C           -1.14162421942588       -2.77036400741713        2.30938581090070
C           -1.26059246915021       -1.45414126911399        1.72875366493092
C           -2.15207738241606       -1.21492342216302        0.59491627489079
C           -1.65472019122349       -0.67079449252454       -0.59963039436348
C           -2.44886750161459       -0.67091708351897       -1.75871087469364
C           -3.73901432651053       -1.13802536927422       -1.74441504368799
C           -4.32682873203483       -1.55984243267006       -0.54566744795177
C           -5.68018603518024       -1.94612338121008       -0.51881461808746
C           -6.28795367936402       -2.30915422156653        0.65963506617250
C           -5.55465803453340       -2.27733043814809        1.84519602257583
C           -4.21978056828521       -1.92118712806039        1.83681304108282
C           -3.54458671293428       -1.58034474044376        0.64302158721805
N           -0.34221601380567       -0.11136114835339       -0.65218381961456
C            0.35547210231606       -0.21287511405613       -1.93127227674770
H            0.31241965452851        5.56261309711548       -2.96187459406868
H            1.34748678312268        4.51925887841076       -3.93405442956572
H            1.79997845214316        4.89986737126562       -2.27491803354985
H            0.88267367785433        2.60835382263705       -2.44103724695653
H           -1.45198256812337        2.21165958736387       -3.19082677667318
H           -0.55783513568840        3.06294751864670       -4.44196863937176
H           -1.69223238647460        3.94445603314119       -3.42444199467681
H            0.54815679077995        4.04486581560688       -0.40791412661998
H           -1.00903714130535        4.53368063530188       -1.02926387974013
H           -2.67755657257216        1.68366459218917        0.36365872970176
H           -2.67749613141527        2.06811207188642       -1.35685717400313
H           -3.05125176686224        4.45015661252218       -0.87043417152983
H           -3.57851090543119        5.18841685508649        1.44435925012277
H           -1.88993394925709        4.71604758640460        1.31164888747582
H           -3.06461416789335        3.62742014538245        2.07624350087375
H           -4.96216009213371        2.89526726927626       -1.11615230475441
H           -5.32141532164354        4.20797249339163        0.00005727595973
H           -4.96008131980869        2.60161642904019        0.62682950032902
H            4.93924953778185        1.63702848185696        0.16187721102600
H            5.58287646890419        3.24658319550608       -1.54536020256851
H            4.10735234159137        2.42946861044640       -2.06259927574451
H            5.65883854368516        2.00421667504016       -2.78866633305846
H            7.44845904222403        0.81576410788848       -1.37269015618036
H            7.29531628050889        2.00691863662291       -0.08778965506452
H            7.05835353590702        0.29644373772008        0.26769500693440
H            6.01421488651381       -0.31930591002010       -2.83253844487497
H            5.20536838440671       -2.54526232987476       -3.42214081394790
H            3.53148025855782       -3.66216134677892       -2.04708952873872
H            1.57425031897185       -2.06226214230869        0.64659936838080
H            3.57062871349168       -2.84660499416445        1.92551407347087
H            2.28266320055460       -4.05339993994319        1.93778333692005
H            3.68215210275216       -4.26965915770761        0.88504726395995
H            0.61996854633684       -4.18177898572355        0.07608204714710
H            0.87914470256532       -3.30202311453396       -1.42723110618018
H            1.95561056632973       -4.62752109519741       -0.96564843938905
H            0.63048614339629        2.10826250817710        3.02212207433140
H           -0.69551235274730        2.94807584470760        2.22448257458487
H           -1.04749574130147        1.84276325788486        3.55521998448929
H            0.91103871690795        0.14464780101628        3.83306866808136
H            0.98273015797242       -2.01124918210991        4.88371289447078
H            0.34430840756287       -4.34538432698670        4.97865834457686
H           -0.80912823935162       -6.28646649829780        4.02954491518507
H           -2.12277246719505       -6.02659466444318        1.93849132472391
H           -2.31718601678941       -3.87299586431088        0.85477349222424
H           -2.05976047319214       -0.30384600323338       -2.69792818595911
H           -4.31076644319920       -1.13725441620508       -2.66237580245727
H           -6.25440301127953       -1.94924820475146       -1.43614238538679
H           -7.32998529759207       -2.60159082088628        0.66572974903691
H           -6.03225983486286       -2.53536371361997        2.78087019255847
H           -3.69388410985219       -1.88809610876301        2.78234809956762
H           -0.02652033760466        0.48953953024544       -2.67694369025460
H            1.42225251021216       -0.01306353312543       -1.80690174985558
H            0.25808712556587       -1.22506598247498       -2.32547307243868
101
 energy: -134.529901081922 gnorm: 0.014342183012 xtb: 6.7.1 (edcfbbe)
C            0.96160946231880        4.68170404619779       -2.92637163707810
C            0.19375839542671        3.45072477557660       -2.44629578576497
C           -0.94846178125962        3.14931546276180       -3.41474436842102
C           -0.28384202736710        3.70598433779961       -1.00679082467242
N           -0.91886001916690        2.58420018360522       -0.31593041981526
C           -2.38345434393422        2.43587725790070       -0.37019944350761
C           -3.21406663195971        3.69939720564035       -0.08214986675598
C           -2.90317987638320        4.33451929645982        1.26834643718649
C           -4.69420486452037        3.31666474860794       -0.14823667149963
P           -0.06947806560341        1.25361901252875        0.21614069657023
S            1.99161018811799        1.75824543360154        0.17461358397487
S            2.95813364513730        0.12223825505618        1.01004273244682
C            3.70468075572974       -0.72063889805703       -0.39307402099612
C            4.73657927819912       -0.09836080725451       -1.10943371009135
C            5.36134192106454        1.23348507201635       -0.74701569668465
C            5.15204031299959        2.27628035449357       -1.85036261419492
C            6.86227969067060        1.06425262456020       -0.47044117469705
C            5.24121485967038       -0.77409524165405       -2.21214100004834
C            4.78752518021612       -2.03244066110642       -2.55136194202084
C            3.82979183880237       -2.65699352597846       -1.77535758938786
C            3.25992796812082       -2.02047654146292       -0.68319597926297
C            2.25711612185040       -2.76061586285343        0.18163613898058
C            2.99908294768551       -3.50816097036037        1.29702470478263
C            1.38697964552136       -3.75871558819600       -0.58767324811416
N           -0.60247194947287        0.89977558524702        1.74530039713580
C           -0.41498738804427        2.00214622335563        2.68746650578409
C           -0.49805512237347       -0.42741325078493        2.27338279489268
C            0.31884463326489       -0.64336497961902        3.39671901687933
C            0.37420223072289       -1.86408299707477        3.99521532378698
C           -0.34133101287540       -2.95472480962776        3.46694270841683
C           -0.25205903349135       -4.22530534013054        4.07089782995087
C           -0.89722460896761       -5.30177331125294        3.53593472951846
C           -1.64068680315082       -5.13820038200522        2.35896193024201
C           -1.75868056463447       -3.91212339015862        1.75929940737425
C           -1.14059883223107       -2.76488898892620        2.30292569488476
C           -1.25661580118254       -1.45221505392716        1.73693196333646
C           -2.15348204638288       -1.21891143907468        0.58451825626508
C           -1.66349383323470       -0.68151120095054       -0.59423731585346
C           -2.45047414266784       -0.66364527737780       -1.75886780124464
C           -3.72927813527432       -1.13050153828728       -1.74746888030237
C           -4.32175556277480       -1.56028827741199       -0.54527256424172
C           -5.67605878879839       -1.94718690015361       -0.50927318193432
C           -6.26834141279511       -2.30792981819497        0.66570504260316
C           -5.52072679767295       -2.27697609674206        1.85107897868294
C           -4.19567829967707       -1.93077475658841        1.84264432358165
C           -3.53708309394237       -1.58559206793766        0.64327286380188
N           -0.33612550404540       -0.14808514766632       -0.65295972182826
C            0.36345320084062       -0.23565021660564       -1.93359201734762
H            0.31129334376337        5.55188731542536       -2.95382983935040
H            1.34648080146823        4.51599351696092       -3.92840840239198
H            1.79990054252944        4.89666307190360       -2.26971106480158
H            0.88440139538647        2.59771529583273       -2.42948648168697
H           -1.45463195267749        2.21782368786697       -3.17228056450413
H           -0.55767057588501        3.06244518497251       -4.42600835964778
H           -1.68315891794077        3.95025881186115       -3.40836277468307
H            0.57878325247096        4.02360226079347       -0.41076099696798
H           -1.00150902318957        4.52613131451009       -1.01852886376615
H           -2.65426522946981        1.67509027546501        0.36972354151879
H           -2.68528091909680        2.06605715388932       -1.35587599799956
H           -3.03693576381171        4.43775344287758       -0.87018592149730
H           -3.56750369205885        5.17827867508599        1.43568231406682
H           -1.88169447835678        4.70342393028401        1.31173574426239
H           -3.06184338750835        3.61965944230794        2.07142730405323
H           -4.94673079436688        2.88743840767558       -1.11374811304011
H           -5.30965972396624        4.20010378792695       -0.00075278344185
H           -4.94404661253176        2.59549230856142        0.62525958673182
H            4.89994135712066        1.61569632676671        0.16989192353700
H            5.57161428654588        3.22841371532994       -1.53510925446561
H            4.09374223182297        2.42052820400580       -2.05640306582713
H            5.64755213188559        1.98253448684724       -2.77179999195647
H            7.41034521437287        0.80640240273330       -1.37236443271497
H            7.26992538479628        1.99809294344012       -0.08975053350754
H            7.03694067378111        0.28833953216377        0.27040952349628
H            6.01154963651959       -0.31477294280951       -2.80966608015498
H            5.19751013942548       -2.53915446349318       -3.41131318565350
H            3.52383323612605       -3.65638591306733       -2.03271540515537
H            1.58530059265521       -2.03167426346681        0.65160028369152
H            3.57209338057524       -2.82283582256055        1.91637751563550
H            2.28289207010637       -4.02904287670973        1.92927758641741
H            3.67951757658528       -4.24381148971515        0.87425910470891
H            0.62339523299203       -4.15189807325375        0.08149526991269
H            0.88983095177095       -3.28969315432579       -1.43295753583551
H            1.96562305975556       -4.60359317232773       -0.95037110394344
H            0.62131529435164        2.10982443970251        3.01954536721161
H           -0.71201165440123        2.93220398156598        2.20208210033819
H           -1.04977763507525        1.83334114584222        3.55507667932610
H            0.91009720713332        0.15773260127081        3.80794382348567
H            0.98326917755010       -2.00690367638407        4.87338777277845
H            0.34473828715450       -4.33333865284449        4.96389409959233
H           -0.82240462653465       -6.27036784128214        4.00670342974296
H           -2.12441523850219       -5.99679966177952        1.91876016302420
H           -2.32915857818526       -3.83626614483953        0.84692498516349
H           -2.04450562215067       -0.29608924239630       -2.68739662354318
H           -4.30737355838016       -1.14149765118576       -2.65804860418477
H           -6.24164571375539       -1.94073975841362       -1.42859511679763
H           -7.30776073795777       -2.59857405603716        0.68276184838043
H           -6.00237716658412       -2.52600202724158        2.78418731723056
H           -3.65555141865636       -1.90364877382762        2.77615750606275
H           -0.01242925818538        0.46852775262766       -2.68090282891678
H            1.42541955985128       -0.03418086013289       -1.78331651192259
H            0.25762032825617       -1.24697043638970       -2.31846793732323
101
 energy: -134.532242212268 gnorm: 0.013144016672 xtb: 6.7.1 (edcfbbe)
C            0.96848406308812        4.67568613510452       -2.92081828559753
C            0.20042295029192        3.44566492227150       -2.43996847098428
C           -0.94827960591786        3.14910684747448       -3.40121530672059
C           -0.27054569051588        3.70209801676365       -1.00048895446789
N           -0.91311411963071        2.58520176381420       -0.31149029948498
C           -2.37647314922403        2.42830219209020       -0.36903512054482
C           -3.20492411671231        3.69060260728480       -0.08275552900499
C           -2.89291128002629        4.32474150624878        1.26811918085942
C           -4.68403446395273        3.30654760441458       -0.14933900927304
P           -0.07570627005974        1.24333504590993        0.20617147708001
S            1.96933659465811        1.77703245728876        0.13109480140263
S            2.91205356786758        0.13709143203738        0.98418999696672
C            3.68638414301272       -0.71716289928243       -0.39774639035542
C            4.72258525236045       -0.09942073034687       -1.10655726983469
C            5.33494325323970        1.23044733463246       -0.73663445346770
C            5.12895603008986        2.27109033360119       -1.84112971854105
C            6.83388743051047        1.05831319340734       -0.45931409803570
C            5.23692607554501       -0.77675311561460       -2.20531589183383
C            4.78472018260693       -2.03464489191658       -2.54681927242431
C            3.82305242233689       -2.65813114076920       -1.77475168986543
C            3.24648441260931       -2.01556277787476       -0.68822106308432
C            2.24678814104058       -2.74168787497057        0.18214630158866
C            2.99766693668716       -3.48177608978172        1.29662877729519
C            1.37811775940096       -3.74127241166277       -0.58184661138106
N           -0.60344680409036        0.90025829162561        1.73901275137573
C           -0.42432820500222        2.00606862399572        2.67887900538264
C           -0.49547689498778       -0.42522613282482        2.26739116713203
C            0.32651325132187       -0.63686926843407        3.38977646390154
C            0.38257546191033       -1.85869821136931        3.98523440648130
C           -0.33564826379024       -2.94897789957433        3.45555313224947
C           -0.25212081217425       -4.22256294672091        4.05504247402282
C           -0.90374678479048       -5.29250455008117        3.51474813810769
C           -1.64834150049108       -5.12253075428144        2.33695822579608
C           -1.76233278720563       -3.89622438250876        1.74250533485876
C           -1.13466552916006       -2.75765884090595        2.29381254651293
C           -1.24911840018298       -1.44739459424355        1.73231501792570
C           -2.14799902284951       -1.21741858442257        0.57692358546920
C           -1.65944691087187       -0.68580082330785       -0.59854727117078
C           -2.44790470278501       -0.65967848924504       -1.76409242473517
C           -3.72677009508508       -1.12501345381061       -1.74838491502186
C           -4.31510952392164       -1.55761113182863       -0.54315335799005
C           -5.66946310452806       -1.94543508832432       -0.49846820225325
C           -6.25217595635818       -2.30628566136475        0.68127739090910
C           -5.49602154844402       -2.27872715132525        1.86380444190098
C           -4.17207251870570       -1.93670157902772        1.84744770263065
C           -3.52769709549681       -1.58510078762862        0.64145454887154
N           -0.32261314548035       -0.17156506609360       -0.65491971751323
C            0.37617035186329       -0.26480851672196       -1.93444612449796
H            0.31500378572711        5.54378653475265       -2.94502505691827
H            1.35107318738779        4.51167410326007       -3.92381535392904
H            1.80692695777551        4.89166057946927       -2.26470065933797
H            0.88693729524632        2.58954838279247       -2.42439792386573
H           -1.45933298847699        2.22188633131885       -3.15251772377115
H           -0.56335824780551        3.05804691488058       -4.41407401387453
H           -1.67615538018398        3.95643090878190       -3.38994622829064
H            0.59912570029019        4.00349878642614       -0.40729599589452
H           -0.98104158123104        4.52699008597190       -1.00445271312173
H           -2.63858398080140        1.66719076443622        0.37338930167184
H           -2.68154315572524        2.05618681515261       -1.35267747340800
H           -3.02302543055145        4.42745116866269       -0.87128050862002
H           -3.55368970010585        5.17169172835464        1.43240121020694
H           -1.86945996711486        4.68830385948859        1.31371411273071
H           -3.05743510538718        3.61005903645190        2.07030730662267
H           -4.93387208331531        2.87532309572528       -1.11485967056362
H           -5.30009779587354        4.18893454932310       -0.00233641590517
H           -4.93036606002630        2.58457086750981        0.62478431735655
H            4.86526085534072        1.60546075265393        0.17897778942721
H            5.55141863650745        3.22195086911345       -1.52752439944675
H            4.07137101549582        2.41506433586170       -2.04955282078264
H            5.62626075628354        1.96808116385865       -2.75850656828238
H            7.37494786708636        0.79670252338530       -1.36436408911376
H            7.24363661927793        1.99190739410801       -0.08209694031770
H            7.00691349345822        0.28152923627325        0.28082558676933
H            6.01386281212171       -0.31633867728445       -2.79330870598139
H            5.19929223652824       -2.54245617037676       -3.40312338227187
H            3.51948426696600       -3.65972628012820       -2.02543164112041
H            1.58252468861391       -2.00639620258100        0.65254277074880