      -----------------------------------------------------------      
     |                   =====================                   |     
     |                           x T B                           |     
     |                   =====================                   |     
     |                         S. Grimme                         |     
     |          Mulliken Center for Theoretical Chemistry        |     
     |                    University of Bonn                     |     
      -----------------------------------------------------------      

   * xtb version 6.7.1 (edcfbbe) compiled by 'conda@3ef47c1a292c' on 2024-11-25

   xtb is free software: you can redistribute it and/or modify it under
   the terms of the GNU Lesser General Public License as published by
   the Free Software Foundation, either version 3 of the License, or
   (at your option) any later version.
   
   xtb is distributed in the hope that it will be useful,
   but WITHOUT ANY WARRANTY; without even the implied warranty of
   MERCHANTABILITY or FITNESS FOR A PARTICULAR PURPOSE.  See the
   GNU Lesser General Public License for more details.
   
   Cite this work as:
   * C. Bannwarth, E. Caldeweyher, S. Ehlert, A. Hansen, P. Pracht,
     J. Seibert, S. Spicher, S. Grimme, WIREs Comput. Mol. Sci., 2020, 11,
     e01493. DOI: 10.1002/wcms.1493
   
   for GFN2-xTB:
   * C. Bannwarth, S. Ehlert and S. Grimme., J. Chem. Theory Comput., 2019,
     15, 1652-1671. DOI: 10.1021/acs.jctc.8b01176
   for GFN1-xTB:
   * S. Grimme, C. Bannwarth, P. Shushkov, J. Chem. Theory Comput., 2017,
     13, 1989-2009. DOI: 10.1021/acs.jctc.7b00118
   for GFN0-xTB:
   * P. Pracht, E. Caldeweyher, S. Ehlert, S. Grimme, ChemRxiv, 2019, preprint.
     DOI: 10.26434/chemrxiv.8326202.v1
   for GFN-FF:
   * S. Spicher and S. Grimme, Angew. Chem. Int. Ed., 2020, 59, 15665-15673.
     DOI: 10.1002/anie.202004239
   
   for ALPB and GBSA implicit solvation:
   * S. Ehlert, M. Stahn, S. Spicher, S. Grimme, J. Chem. Theory Comput.,
     2021, 17, 4250-4261. DOI: 10.1021/acs.jctc.1c00471
   
   for ddCOSMO and CPCM-X implicit solvation:
   * M. Stahn, S. Ehlert, S. Grimme, J. Phys. Chem. A,
     2023, XX, XXXX-XXXX. DOI: 10.1021/acs.jpca.3c04382
   
   for DFT-D4:
   * E. Caldeweyher, C. Bannwarth and S. Grimme, J. Chem. Phys., 2017,
     147, 034112. DOI: 10.1063/1.4993215
   * E. Caldeweyher, S. Ehlert, A. Hansen, H. Neugebauer, S. Spicher,
     C. Bannwarth and S. Grimme, J. Chem. Phys., 2019, 150, 154122.
     DOI: 10.1063/1.5090222
   * E. Caldeweyher, J.-M. Mewes, S. Ehlert and S. Grimme, Phys. Chem. Chem. Phys.
     2020, 22, 8499-8512. DOI: 10.1039/D0CP00502A
   
   for sTDA-xTB:
   * S. Grimme and C. Bannwarth, J. Chem. Phys., 2016, 145, 054103.
     DOI: 10.1063/1.4959605
   
   in the mass-spec context:
   * V. Asgeirsson, C. Bauer and S. Grimme, Chem. Sci., 2017, 8, 4879.
     DOI: 10.1039/c7sc00601b
   * J. Koopman and S. Grimme, ACS Omega 2019, 4, 12, 15120-15133.
     DOI: 10.1021/acsomega.9b02011
   
   for metadynamics refer to:
   * S. Grimme, J. Chem. Theory Comput., 2019, 155, 2847-2862
     DOI: 10.1021/acs.jctc.9b00143
   
   for SPH calculations refer to:
   * S. Spicher and S. Grimme, J. Chem. Theory Comput., 2021, 17, 1701-1714
     DOI: 10.1021/acs.jctc.0c01306
   
   for ONIOM refer to:
   * C. Plett, A. Katbashev, S. Ehlert, S. Grimme, M. Bursch,
     Phys. Chem. Chem. Phys., 2023, 25, 17860-17868. DOI: 10.1039/D3CP02178E
   
   for DIPRO refer to:
   * J. Kohn, N. Gildemeister, S. Grimme, D. Fazzi, A. Hansen,
     J. Chem. Phys., 2023, just accepted.
   
   for PTB refer to:
   * S. Grimme, M. Mueller, A. Hansen, J. Chem. Phys., 2023, 158, 124111.
     DOI: 10.1063/5.0137838
   
   with help from (in alphabetical order)
   P. Atkinson, C. Bannwarth, F. Bohle, G. Brandenburg, E. Caldeweyher
   M. Checinski, S. Dohm, S. Ehlert, S. Ehrlich, I. Gerasimov, C. Hölzer
   A. Katbashev, J. Kohn, J. Koopman, C. Lavigne, S. Lehtola, F. März, M. Müller,
   F. Musil, H. Neugebauer, J. Pisarek, C. Plett, P. Pracht, F. Pultar,
   J. Seibert, P. Shushkov, S. Spicher, M. Stahn, M. Steiner, T. Strunk,
   J. Stückrath, T. Rose, and J. Unsleber
   
 * started run on 2024/12/16 at 17:37:59.966     
   ID    Z sym.   atoms
    1    6 C      1, 3-22, 24, 28-33, 35-48
    2    7 N      2, 23, 34
    3   15 P      25
    4   16 S      26, 27
    5    1 H      49-81

           -------------------------------------------------
          |                Calculation Setup                |
           -------------------------------------------------

          program call               : xtb --gfn2 --opt extreme -P 8 --charge 1 molecule.xyz
          hostname                   : node20
          coordinate file            : molecule.xyz
          omp threads                :                     8


           -------------------------------------------------
          |                 G F N 2 - x T B                 |
           -------------------------------------------------

        Reference                      10.1021/acs.jctc.8b01176
      * Hamiltonian:
        H0-scaling (s, p, d)           1.850000    2.230000    2.230000
        zeta-weighting                 0.500000
      * Dispersion:
        s8                             2.700000
        a1                             0.520000
        a2                             5.000000
        s9                             5.000000
      * Repulsion:
        kExp                           1.500000    1.000000
        rExp                           1.000000
      * Coulomb:
        alpha                          2.000000
        third order                    shell-resolved
        anisotropic                    true
        a3                             3.000000
        a5                             4.000000
        cn-shift                       1.200000
        cn-exp                         4.000000
        max-rad                        5.000000


          ...................................................
          :                      SETUP                      :
          :.................................................:
          :  # basis functions                 243          :
          :  # atomic orbitals                 240          :
          :  # shells                          132          :
          :  # electrons                       232          :
          :  max. iterations                   250          :
          :  Hamiltonian                  GFN2-xTB          :
          :  restarted?                      false          :
          :  GBSA solvation                  false          :
          :  PC potential                    false          :
          :  electronic temp.          300.0000000     K    :
          :  accuracy                    1.0000000          :
          :  -> integral cutoff          0.2500000E+02      :
          :  -> integral neglect         0.1000000E-07      :
          :  -> SCF convergence          0.1000000E-05 Eh   :
          :  -> wf. convergence          0.1000000E-03 e    :
          :  Broyden damping             0.4000000          :
          :  net charge                          1          :
          :  unpaired electrons                  0          :
          ...................................................

 iter      E             dE          RMSdq      gap      omega  full diag
   1   -126.1053226 -0.126105E+03  0.474E+00    1.68       0.0  T
   2   -126.2544966 -0.149174E+00  0.293E+00    2.00       1.0  T
   3   -126.1947414  0.597553E-01  0.145E+00    1.79       1.0  T
   4   -126.2682749 -0.735336E-01  0.613E-01    1.51       1.0  T
   5   -126.2881943 -0.199194E-01  0.268E-01    1.64       1.0  T
   6   -126.2900473 -0.185299E-02  0.148E-01    1.61       1.0  T
   7   -126.2919205 -0.187316E-02  0.469E-02    1.63       1.0  T
   8   -126.2919692 -0.487320E-04  0.259E-02    1.63       1.0  T
   9   -126.2919902 -0.210371E-04  0.123E-02    1.63       1.0  T
  10   -126.2919934 -0.316186E-05  0.566E-03    1.63       2.0  T
  11   -126.2919938 -0.434668E-06  0.303E-03    1.63       3.7  T
  12   -126.2919941 -0.243760E-06  0.184E-03    1.63       6.0  T
  13   -126.2919941 -0.120644E-07  0.101E-03    1.63      11.0  T
  14   -126.2919941 -0.271839E-07  0.512E-04    1.63      21.7  T
  15   -126.2919941 -0.381844E-08  0.251E-04    1.63      44.2  T

   *** convergence criteria satisfied after 15 iterations ***

         #    Occupation            Energy/Eh            Energy/eV
      -------------------------------------------------------------
         1        2.0000           -0.8625157             -23.4702
       ...           ...                  ...                  ...
       110        2.0000           -0.4960916             -13.4993
       111        2.0000           -0.4939862             -13.4420
       112        2.0000           -0.4854945             -13.2110
       113        2.0000           -0.4832395             -13.1496
       114        2.0000           -0.4702814             -12.7970
       115        2.0000           -0.4665545             -12.6956
       116        2.0000           -0.4529821             -12.3263 (HOMO)
       117                         -0.3931249             -10.6975 (LUMO)
       118                         -0.3702810             -10.0759
       119                         -0.3638330              -9.9004
       120                         -0.3601291              -9.7996
       121                         -0.3486158              -9.4863
       ...                                ...                  ...
       240                          1.0423581              28.3640
      -------------------------------------------------------------
                  HL-Gap            0.0598572 Eh            1.6288 eV
             Fermi-level           -0.4230535 Eh          -11.5119 eV

 SCC (total)                   0 d,  0 h,  0 min,  2.851 sec
 SCC setup                      ...        0 min,  0.000 sec (  0.015%)
 Dispersion                     ...        0 min,  0.002 sec (  0.076%)
 classical contributions        ...        0 min,  0.000 sec (  0.004%)
 integral evaluation            ...        0 min,  0.010 sec (  0.356%)
 iterations                     ...        0 min,  2.690 sec ( 94.356%)
 molecular gradient             ...        0 min,  0.143 sec (  5.014%)
 printout                       ...        0 min,  0.005 sec (  0.177%)

         :::::::::::::::::::::::::::::::::::::::::::::::::::::
         ::                     SUMMARY                     ::
         :::::::::::::::::::::::::::::::::::::::::::::::::::::
         :: total energy            -124.233584379998 Eh    ::
         :: gradient norm              0.139084169651 Eh/a0 ::
         :: HOMO-LUMO gap              1.628796979240 eV    ::
         ::.................................................::
         :: SCC energy              -126.284697345504 Eh    ::
         :: -> isotropic ES            0.073611507851 Eh    ::
         :: -> anisotropic ES         -0.000782155161 Eh    ::
         :: -> anisotropic XC          0.079852078396 Eh    ::
         :: -> dispersion             -0.140146599805 Eh    ::
         :: repulsion energy           2.051112965506 Eh    ::
         :: add. restraining           0.000000000000 Eh    ::
         :: total charge               1.000000000000 e     ::
         :::::::::::::::::::::::::::::::::::::::::::::::::::::

      ----------------------------------------------------------- 
     |                   =====================                   |
     |                        A N C O P T                        |
     |                   =====================                   |
     |               Approximate Normal Coordinate               |
     |                Rational Function Optimizer                |
      ----------------------------------------------------------- 
      ----------------------------------------------------------- 
     |                   =====================                   |
     |                        A N C O P T                        |
     |                   =====================                   |
     |               Approximate Normal Coordinate               |
     |                Rational Function Optimizer                |
      ----------------------------------------------------------- 

          ...................................................
          :                      SETUP                      :
          :.................................................:
          :   optimization level           extreme          :
          :   max. optcycles                  1620          :
          :   ANC micro-cycles                  20          :
          :   degrees of freedom               237          :
          :.................................................:
          :   RF solver                   davidson          :
          :   write xtbopt.log                true          :
          :   linear?                        false          :
          :   energy convergence         0.5000000E-07 Eh   :
          :   grad. convergence          0.5000000E-04 Eh/α :
          :   maxmium RF displ.          1.0000000          :
          :   Hlow (freq-cutoff)         0.1000000E-01      :
          :   Hmax (freq-cutoff)         5.0000000          :
          :   S6 in model hess.         20.0000000          :
          ...................................................

generating ANC from exact Hessian ...
Using Lindh-Hessian (1995)
 Shifting diagonal of input Hessian by    9.8661754775137400E-003
 Lowest  eigenvalues of input Hessian
    0.000000    0.000000    0.000000    0.000000    0.000000    0.000000
    0.010000    0.010053    0.010161    0.010206    0.010291    0.010446
    0.010578    0.010834    0.011123    0.011198    0.011241    0.011416
 Highest eigenvalues
    1.987133    1.994489    2.025306    2.027888    2.066440    2.074364


........................................................................
.............................. CYCLE    1 ..............................
........................................................................

 iter      E             dE          RMSdq      gap      omega  full diag
   1   -126.2919941 -0.126292E+03  0.125E-04    1.63       0.0  T
   2   -126.2919941 -0.117282E-09  0.889E-05    1.63     125.0  T
   3   -126.2919941 -0.208843E-09  0.597E-05    1.63     186.2  T
     SCC iter.                  ...        0 min,  0.520 sec
     gradient                   ...        0 min,  0.120 sec
 * total energy  :  -124.2335844 Eh     change       -0.1633637E-08 Eh
   gradient norm :     0.1390851 Eh/α   predicted     0.0000000E+00 (-100.00%)
   displ. norm   :     0.3949163 α      lambda       -0.2989732E-01
   maximum displ.:     0.1052512 α      in ANC's #49, #25, #64, ...

........................................................................
.............................. CYCLE    2 ..............................
........................................................................

 iter      E             dE          RMSdq      gap      omega  full diag
   1   -126.3850474 -0.126385E+03  0.318E-01    1.74       0.0  T
   2   -126.3852175 -0.170056E-03  0.162E-01    1.82       1.0  T
   3   -126.3850537  0.163737E-03  0.598E-02    1.87       1.0  T
   4   -126.3852498 -0.196111E-03  0.240E-02    1.87       1.0  T
   5   -126.3852706 -0.207773E-04  0.113E-02    1.87       1.0  T
   6   -126.3852778 -0.717463E-05  0.446E-03    1.87       2.5  T
   7   -126.3852786 -0.823024E-06  0.249E-03    1.86       4.5  T
   8   -126.3852787 -0.132280E-06  0.139E-03    1.86       8.0  T
   9   -126.3852788 -0.414308E-07  0.758E-04    1.86      14.7  T
  10   -126.3852788 -0.284300E-08  0.475E-04    1.86      23.4  T
     SCC iter.                  ...        0 min,  2.022 sec
     gradient                   ...        0 min,  0.116 sec
 * total energy  :  -124.2551283 Eh     change       -0.2154393E-01 Eh
   gradient norm :     0.0633643 Eh/α   predicted    -0.1730619E-01 ( -19.67%)
   displ. norm   :     0.4160988 α      lambda       -0.1231753E-01
   maximum displ.:     0.1232754 α      in ANC's #49, #16, #18, ...

........................................................................
.............................. CYCLE    3 ..............................
........................................................................

 iter      E             dE          RMSdq      gap      omega  full diag
   1   -126.4404029 -0.126440E+03  0.282E-01    2.01       0.0  T
   2   -126.4404934 -0.905364E-04  0.144E-01    2.06       1.0  T
   3   -126.4403899  0.103527E-03  0.474E-02    2.09       1.0  T
   4   -126.4405156 -0.125708E-03  0.162E-02    2.09       1.0  T
   5   -126.4405257 -0.100703E-04  0.714E-03    2.09       1.6  T
   6   -126.4405284 -0.273523E-05  0.309E-03    2.09       3.6  T
   7   -126.4405288 -0.359722E-06  0.149E-03    2.09       7.4  T
   8   -126.4405288 -0.468741E-07  0.720E-04    2.09      15.4  T
   9   -126.4405289 -0.257821E-07  0.313E-04    2.09      35.5  T
     SCC iter.                  ...        0 min,  1.524 sec
     gradient                   ...        0 min,  0.134 sec
 * total energy  :  -124.2627891 Eh     change       -0.7660775E-02 Eh
   gradient norm :     0.0198382 Eh/α   predicted    -0.7225087E-02 (  -5.69%)
   displ. norm   :     0.3848299 α      lambda       -0.2920018E-02
   maximum displ.:     0.1636520 α      in ANC's #16, #18, #9, ...

........................................................................
.............................. CYCLE    4 ..............................
........................................................................

 iter      E             dE          RMSdq      gap      omega  full diag
   1   -126.4461517 -0.126446E+03  0.163E-01    2.13       0.0  T
   2   -126.4461849 -0.331582E-04  0.835E-02    2.15       1.0  T
   3   -126.4461583  0.265169E-04  0.278E-02    2.16       1.0  T
   4   -126.4461890 -0.306319E-04  0.109E-02    2.16       1.0  T
   5   -126.4461938 -0.481370E-05  0.477E-03    2.16       2.3  T
   6   -126.4461948 -0.100802E-05  0.251E-03    2.16       4.4  T
   7   -126.4461951 -0.269293E-06  0.106E-03    2.16      10.5  T
   8   -126.4461951 -0.171373E-07  0.604E-04    2.16      18.4  T
   9   -126.4461951 -0.745499E-08  0.323E-04    2.16      34.4  T
     SCC iter.                  ...        0 min,  1.674 sec
     gradient                   ...        0 min,  0.116 sec
 * total energy  :  -124.2649211 Eh     change       -0.2131973E-02 Eh
   gradient norm :     0.0162258 Eh/α   predicted    -0.1676249E-02 ( -21.38%)
   displ. norm   :     0.4578019 α      lambda       -0.2052282E-02
   maximum displ.:     0.2067572 α      in ANC's #18, #16, #9, ...

........................................................................
.............................. CYCLE    5 ..............................
........................................................................

 iter      E             dE          RMSdq      gap      omega  full diag
   1   -126.4467385 -0.126447E+03  0.119E-01    2.17       0.0  T
   2   -126.4467601 -0.215500E-04  0.666E-02    2.17       1.0  T
   3   -126.4467356  0.245251E-04  0.256E-02    2.18       1.0  T
   4   -126.4467658 -0.302384E-04  0.772E-03    2.18       1.4  T
   5   -126.4467676 -0.179669E-05  0.362E-03    2.18       3.1  T
   6   -126.4467680 -0.374072E-06  0.196E-03    2.18       5.7  T
   7   -126.4467682 -0.186912E-06  0.808E-04    2.18      13.7  T
   8   -126.4467682 -0.875302E-08  0.394E-04    2.18      28.2  T
     SCC iter.                  ...        0 min,  1.455 sec
     gradient                   ...        0 min,  0.151 sec
 * total energy  :  -124.2663499 Eh     change       -0.1428891E-02 Eh
   gradient norm :     0.0106054 Eh/α   predicted    -0.1241205E-02 ( -13.14%)
   displ. norm   :     0.4371197 α      lambda       -0.1171337E-02
   maximum displ.:     0.1880822 α      in ANC's #18, #16, #9, ...

........................................................................
.............................. CYCLE    6 ..............................
........................................................................

 iter      E             dE          RMSdq      gap      omega  full diag
   1   -126.4454375 -0.126445E+03  0.101E-01    2.16       0.0  T
   2   -126.4454494 -0.118782E-04  0.542E-02    2.17       1.0  T
   3   -126.4454420  0.738226E-05  0.171E-02    2.17       1.0  T
   4   -126.4454493 -0.720703E-05  0.856E-03    2.17       1.3  T
   5   -126.4454519 -0.268647E-05  0.321E-03    2.17       3.5  T
   6   -126.4454525 -0.536232E-06  0.157E-03    2.17       7.1  T
   7   -126.4454526 -0.131334E-06  0.682E-04    2.17      16.3  T
   8   -126.4454526 -0.618655E-08  0.403E-04    2.17      27.6  T
     SCC iter.                  ...        0 min,  1.193 sec
     gradient                   ...        0 min,  0.120 sec
 * total energy  :  -124.2671738 Eh     change       -0.8238711E-03 Eh
   gradient norm :     0.0079184 Eh/α   predicted    -0.6975789E-03 ( -15.33%)
   displ. norm   :     0.4338109 α      lambda       -0.8540349E-03
   maximum displ.:     0.1614338 α      in ANC's #18, #5, #8, ...

........................................................................
.............................. CYCLE    7 ..............................
........................................................................

 iter      E             dE          RMSdq      gap      omega  full diag
   1   -126.4465330 -0.126447E+03  0.864E-02    2.17       0.0  T
   2   -126.4465385 -0.554301E-05  0.493E-02    2.17       1.0  T
   3   -126.4465308  0.775630E-05  0.139E-02    2.16       1.0  T
   4   -126.4465394 -0.861609E-05  0.514E-03    2.17       2.2  T
   5   -126.4465401 -0.729506E-06  0.227E-03    2.16       4.9  T
   6   -126.4465404 -0.333936E-06  0.959E-04    2.17      11.6  T
   7   -126.4465405 -0.477392E-07  0.501E-04    2.16      22.2  T
     SCC iter.                  ...        0 min,  1.144 sec
     gradient                   ...        0 min,  0.116 sec
 * total energy  :  -124.2677961 Eh     change       -0.6222749E-03 Eh
   gradient norm :     0.0097433 Eh/α   predicted    -0.5073812E-03 ( -18.46%)
   displ. norm   :     0.4326974 α      lambda       -0.6812010E-03
   maximum displ.:     0.1787462 α      in ANC's #5, #8, #4, ...

........................................................................
.............................. CYCLE    8 ..............................
........................................................................

 iter      E             dE          RMSdq      gap      omega  full diag
   1   -126.4491516 -0.126449E+03  0.797E-02    2.17       0.0  T
   2   -126.4491539 -0.229585E-05  0.460E-02    2.17       1.0  T
   3   -126.4491462  0.767681E-05  0.107E-02    2.17       1.0  T
   4   -126.4491545 -0.833198E-05  0.349E-03    2.17       3.2  T
   5   -126.4491550 -0.436068E-06  0.156E-03    2.17       7.1  T
   6   -126.4491551 -0.168463E-06  0.630E-04    2.17      17.6  T
   7   -126.4491552 -0.187198E-07  0.310E-04    2.17      35.8  T
     SCC iter.                  ...        0 min,  1.172 sec
     gradient                   ...        0 min,  0.117 sec
 * total energy  :  -124.2683191 Eh     change       -0.5229857E-03 Eh
   gradient norm :     0.0090168 Eh/α   predicted    -0.4043810E-03 ( -22.68%)
   displ. norm   :     0.4577540 α      lambda       -0.5999801E-03
   maximum displ.:     0.2008066 α      in ANC's #5, #8, #4, ...

........................................................................
.............................. CYCLE    9 ..............................
........................................................................

 iter      E             dE          RMSdq      gap      omega  full diag
   1   -126.4508305 -0.126451E+03  0.823E-02    2.17       0.0  T
   2   -126.4508357 -0.523134E-05  0.457E-02    2.17       1.0  T
   3   -126.4508262  0.952049E-05  0.144E-02    2.17       1.0  T
   4   -126.4508363 -0.101044E-04  0.597E-03    2.17       1.9  T
   5   -126.4508375 -0.122898E-05  0.250E-03    2.17       4.5  T
   6   -126.4508380 -0.446339E-06  0.852E-04    2.17      13.0  T
   7   -126.4508380 -0.496003E-07  0.319E-04    2.17      34.9  T
     SCC iter.                  ...        0 min,  1.222 sec
     gradient                   ...        0 min,  0.145 sec
 * total energy  :  -124.2687946 Eh     change       -0.4755716E-03 Eh
   gradient norm :     0.0062847 Eh/α   predicted    -0.3628562E-03 ( -23.70%)
   displ. norm   :     0.4912553 α      lambda       -0.5433111E-03
   maximum displ.:     0.2264254 α      in ANC's #5, #4, #3, ...

........................................................................
.............................. CYCLE   10 ..............................
........................................................................

 iter      E             dE          RMSdq      gap      omega  full diag
   1   -126.4519246 -0.126452E+03  0.864E-02    2.19       0.0  T
   2   -126.4519301 -0.550390E-05  0.460E-02    2.18       1.0  T
   3   -126.4519244  0.561591E-05  0.129E-02    2.18       1.0  T
   4   -126.4519292 -0.475330E-05  0.722E-03    2.18       1.5  T
   5   -126.4519316 -0.244024E-05  0.219E-03    2.18       5.1  T
   6   -126.4519320 -0.349381E-06  0.825E-04    2.18      13.5  T
   7   -126.4519320 -0.323963E-07  0.438E-04    2.18      25.4  T
     SCC iter.                  ...        0 min,  1.092 sec
     gradient                   ...        0 min,  0.114 sec
 * total energy  :  -124.2692256 Eh     change       -0.4309607E-03 Eh
   gradient norm :     0.0051382 Eh/α   predicted    -0.3372160E-03 ( -21.75%)
   displ. norm   :     0.4974072 α      lambda       -0.4505524E-03
   maximum displ.:     0.2384491 α      in ANC's #5, #4, #3, ...

........................................................................
.............................. CYCLE   11 ..............................
........................................................................

 iter      E             dE          RMSdq      gap      omega  full diag
   1   -126.4509789 -0.126451E+03  0.885E-02    2.18       0.0  T
   2   -126.4509852 -0.627638E-05  0.461E-02    2.19       1.0  T
   3   -126.4509785  0.674326E-05  0.142E-02    2.19       1.0  T
   4   -126.4509849 -0.641979E-05  0.757E-03    2.19       1.5  T
   5   -126.4509870 -0.216290E-05  0.255E-03    2.19       4.4  T
   6   -126.4509876 -0.535519E-06  0.690E-04    2.19      16.1  T
   7   -126.4509876 -0.213783E-07  0.350E-04    2.19      31.7  T
     SCC iter.                  ...        0 min,  1.019 sec
     gradient                   ...        0 min,  0.135 sec
 * total energy  :  -124.2695785 Eh     change       -0.3528835E-03 Eh
   gradient norm :     0.0062174 Eh/α   predicted    -0.2810138E-03 ( -20.37%)
   displ. norm   :     0.4552597 α      lambda       -0.3493052E-03
   maximum displ.:     0.2286177 α      in ANC's #5, #4, #3, ...

........................................................................
.............................. CYCLE   12 ..............................
........................................................................

 iter      E             dE          RMSdq      gap      omega  full diag
   1   -126.4508599 -0.126451E+03  0.881E-02    2.20       0.0  T
   2   -126.4508661 -0.621795E-05  0.437E-02    2.20       1.0  T
   3   -126.4508637  0.242871E-05  0.120E-02    2.19       1.0  T
   4   -126.4508643 -0.636093E-06  0.764E-03    2.20       1.5  T
   5   -126.4508675 -0.322654E-05  0.171E-03    2.20       6.5  T
   6   -126.4508678 -0.261375E-06  0.512E-04    2.20      21.7  T
   7   -126.4508678 -0.667561E-08  0.256E-04    2.20      43.4  T
     SCC iter.                  ...        0 min,  1.223 sec
     gradient                   ...        0 min,  0.117 sec
 * total energy  :  -124.2698505 Eh     change       -0.2719624E-03 Eh
   gradient norm :     0.0061408 Eh/α   predicted    -0.2108551E-03 ( -22.47%)
   displ. norm   :     0.4104089 α      lambda       -0.2774967E-03
   maximum displ.:     0.2121297 α      in ANC's #5, #4, #3, ...

........................................................................
.............................. CYCLE   13 ..............................
........................................................................

 iter      E             dE          RMSdq      gap      omega  full diag
   1   -126.4507771 -0.126451E+03  0.793E-02    2.20       0.0  T
   2   -126.4507819 -0.483753E-05  0.406E-02    2.20       1.0  T
   3   -126.4507788  0.312816E-05  0.112E-02    2.20       1.0  T
   4   -126.4507808 -0.198611E-05  0.690E-03    2.20       1.6  T
   5   -126.4507831 -0.234853E-05  0.188E-03    2.20       5.9  T
   6   -126.4507834 -0.284102E-06  0.653E-04    2.20      17.0  T
   7   -126.4507834 -0.137468E-07  0.388E-04    2.20      28.6  T
     SCC iter.                  ...        0 min,  1.099 sec
     gradient                   ...        0 min,  0.132 sec
 * total energy  :  -124.2700688 Eh     change       -0.2183180E-03 Eh
   gradient norm :     0.0044827 Eh/α   predicted    -0.1621212E-03 ( -25.74%)
   displ. norm   :     0.3905740 α      lambda       -0.2439323E-03
   maximum displ.:     0.2039700 α      in ANC's #5, #4, #3, ...

........................................................................
.............................. CYCLE   14 ..............................
........................................................................

 iter      E             dE          RMSdq      gap      omega  full diag
   1   -126.4516094 -0.126452E+03  0.804E-02    2.21       0.0  T
   2   -126.4516139 -0.454768E-05  0.410E-02    2.21       1.0  T
   3   -126.4516123  0.162064E-05  0.105E-02    2.21       1.1  T
   4   -126.4516125 -0.209447E-06  0.651E-03    2.21       1.7  T
   5   -126.4516149 -0.241793E-05  0.152E-03    2.21       7.3  T
   6   -126.4516151 -0.183642E-06  0.644E-04    2.21      17.3  T
   7   -126.4516151 -0.134046E-07  0.382E-04    2.21      29.1  T
     SCC iter.                  ...        0 min,  1.028 sec
     gradient                   ...        0 min,  0.152 sec
 * total energy  :  -124.2702591 Eh     change       -0.1903611E-03 Eh
   gradient norm :     0.0033494 Eh/α   predicted    -0.1405721E-03 ( -26.16%)
   displ. norm   :     0.3953213 α      lambda       -0.2095024E-03
   maximum displ.:     0.2036327 α      in ANC's #5, #4, #3, ...

........................................................................
.............................. CYCLE   15 ..............................
........................................................................

 iter      E             dE          RMSdq      gap      omega  full diag
   1   -126.4517750 -0.126452E+03  0.797E-02    2.22       0.0  T
   2   -126.4517787 -0.363701E-05  0.422E-02    2.22       1.0  T
   3   -126.4517760  0.263333E-05  0.105E-02    2.22       1.1  T
   4   -126.4517778 -0.172966E-05  0.615E-03    2.22       1.8  T
   5   -126.4517796 -0.186514E-05  0.159E-03    2.22       7.0  T
   6   -126.4517798 -0.192811E-06  0.675E-04    2.22      16.5  T
   7   -126.4517798 -0.123141E-07  0.415E-04    2.22      26.8  T
     SCC iter.                  ...        0 min,  1.269 sec
     gradient                   ...        0 min,  0.116 sec
 * total energy  :  -124.2704240 Eh     change       -0.1649120E-03 Eh
   gradient norm :     0.0042001 Eh/α   predicted    -0.1211232E-03 ( -26.55%)
   displ. norm   :     0.4084144 α      lambda       -0.1938574E-03
   maximum displ.:     0.2039990 α      in ANC's #5, #4, #3, ...

........................................................................
.............................. CYCLE   16 ..............................
........................................................................

 iter      E             dE          RMSdq      gap      omega  full diag
   1   -126.4522216 -0.126452E+03  0.814E-02    2.23       0.0  T
   2   -126.4522249 -0.320875E-05  0.438E-02    2.23       1.0  T
   3   -126.4522226  0.227070E-05  0.102E-02    2.23       1.1  T
   4   -126.4522242 -0.159390E-05  0.572E-03    2.23       1.9  T
   5   -126.4522258 -0.157237E-05  0.130E-03    2.23       8.5  T
   6   -126.4522259 -0.116087E-06  0.548E-04    2.23      20.3  T
   7   -126.4522259 -0.100005E-07  0.310E-04    2.23      35.8  T
     SCC iter.                  ...        0 min,  1.223 sec
     gradient                   ...        0 min,  0.117 sec
 * total energy  :  -124.2705788 Eh     change       -0.1547148E-03 Eh
   gradient norm :     0.0047147 Eh/α   predicted    -0.1130982E-03 ( -26.90%)
   displ. norm   :     0.4431481 α      lambda       -0.1914767E-03
   maximum displ.:     0.2152212 α      in ANC's #5, #4, #3, ...

........................................................................
.............................. CYCLE   17 ..............................
........................................................................

 iter      E             dE          RMSdq      gap      omega  full diag
   1   -126.4519004 -0.126452E+03  0.839E-02    2.24       0.0  T
   2   -126.4519032 -0.288027E-05  0.461E-02    2.24       1.0  T
   3   -126.4519000  0.320572E-05  0.104E-02    2.24       1.1  T
   4   -126.4519028 -0.278611E-05  0.548E-03    2.24       2.0  T
   5   -126.4519042 -0.134529E-05  0.134E-03    2.24       8.3  T
   6   -126.4519043 -0.129731E-06  0.505E-04    2.24      22.0  T
   7   -126.4519043 -0.913131E-08  0.260E-04    2.24      42.7  T
     SCC iter.                  ...        0 min,  1.155 sec
     gradient                   ...        0 min,  0.125 sec
 * total energy  :  -124.2707330 Eh     change       -0.1542329E-03 Eh
   gradient norm :     0.0041739 Eh/α   predicted    -0.1145421E-03 ( -25.73%)
   displ. norm   :     0.4508455 α      lambda       -0.1880578E-03
   maximum displ.:     0.2154519 α      in ANC's #4, #5, #3, ...

........................................................................
.............................. CYCLE   18 ..............................
........................................................................

 iter      E             dE          RMSdq      gap      omega  full diag
   1   -126.4525179 -0.126453E+03  0.812E-02    2.24       0.0  T
   2   -126.4525201 -0.225255E-05  0.455E-02    2.24       1.0  T
   3   -126.4525173  0.284067E-05  0.920E-03    2.24       1.2  T
   4   -126.4525198 -0.251325E-05  0.482E-03    2.24       2.3  T
   5   -126.4525209 -0.110110E-05  0.116E-03    2.24       9.6  T
   6   -126.4525210 -0.844376E-07  0.459E-04    2.24      24.2  T
   7   -126.4525210 -0.918125E-08  0.213E-04    2.24      52.1  T
     SCC iter.                  ...        0 min,  1.323 sec
     gradient                   ...        0 min,  0.116 sec
 * total energy  :  -124.2708835 Eh     change       -0.1504662E-03 Eh
   gradient norm :     0.0032942 Eh/α   predicted    -0.1131430E-03 ( -24.81%)
   displ. norm   :     0.4353062 α      lambda       -0.1675714E-03
   maximum displ.:     0.2080714 α      in ANC's #4, #5, #3, ...

........................................................................
.............................. CYCLE   19 ..............................
........................................................................

 iter      E             dE          RMSdq      gap      omega  full diag
   1   -126.4529005 -0.126453E+03  0.757E-02    2.24       0.0  T
   2   -126.4529022 -0.166601E-05  0.428E-02    2.24       1.0  T
   3   -126.4528993  0.293189E-05  0.836E-03    2.24       1.3  T
   4   -126.4529021 -0.284937E-05  0.403E-03    2.24       2.8  T
   5   -126.4529028 -0.723915E-06  0.115E-03    2.24       9.7  T
   6   -126.4529029 -0.942045E-07  0.402E-04    2.24      27.6  T
   7   -126.4529029 -0.495672E-08  0.211E-04    2.24      52.6  T
     SCC iter.                  ...        0 min,  1.286 sec
     gradient                   ...        0 min,  0.118 sec
 * total energy  :  -124.2710148 Eh     change       -0.1313059E-03 Eh
   gradient norm :     0.0033063 Eh/α   predicted    -0.9966473E-04 ( -24.10%)
   displ. norm   :     0.3925051 α      lambda       -0.1319817E-03
   maximum displ.:     0.1854460 α      in ANC's #4, #5, #2, ...

........................................................................
.............................. CYCLE   20 ..............................
........................................................................

 iter      E             dE          RMSdq      gap      omega  full diag
   1   -126.4538146 -0.126454E+03  0.669E-02    2.25       0.0  T
   2   -126.4538156 -0.995557E-06  0.383E-02    2.25       1.0  T
   3   -126.4538131  0.252860E-05  0.685E-03    2.24       1.6  T
   4   -126.4538158 -0.264790E-05  0.294E-03    2.25       3.8  T
   5   -126.4538161 -0.339547E-06  0.998E-04    2.25      11.1  T
   6   -126.4538162 -0.754496E-07  0.323E-04    2.25      34.4  T
     SCC iter.                  ...        0 min,  1.110 sec
     gradient                   ...        0 min,  0.176 sec
 * total energy  :  -124.2711135 Eh     change       -0.9877585E-04 Eh
   gradient norm :     0.0034455 Eh/α   predicted    -0.7616045E-04 ( -22.90%)
   displ. norm   :     0.3292890 α      lambda       -0.8402241E-04
   maximum displ.:     0.1570418 α      in ANC's #4, #5, #2, ...
 * RMSD in coord.:     0.7168254 α      energy gain  -0.3752916E-01 Eh

generating ANC from exact Hessian ...
Using Lindh-Hessian (1995)
 Shifting diagonal of input Hessian by    9.8625337767026238E-003
 Lowest  eigenvalues of input Hessian
    0.000000    0.000000    0.000000    0.000000    0.000000    0.000000
    0.010000    0.010089    0.010254    0.010273    0.010361    0.010537
    0.010667    0.010951    0.011104    0.011270    0.011496    0.011584
 Highest eigenvalues
    2.064450    2.074586    2.084629    2.110820    2.125483    2.126476


........................................................................
.............................. CYCLE   21 ..............................
........................................................................

 iter      E             dE          RMSdq      gap      omega  full diag
   1   -126.4535632 -0.126454E+03  0.566E-02    2.24       0.0  T
   2   -126.4535640 -0.746808E-06  0.323E-02    2.25       1.0  T
   3   -126.4535613  0.268657E-05  0.659E-03    2.24       1.7  T
   4   -126.4535641 -0.277341E-05  0.267E-03    2.25       4.2  T
   5   -126.4535643 -0.285231E-06  0.105E-03    2.25      10.6  T
   6   -126.4535644 -0.845332E-07  0.294E-04    2.25      37.9  T
   7   -126.4535644 -0.250458E-08  0.158E-04    2.25      70.3  T
     SCC iter.                  ...        0 min,  1.192 sec
     gradient                   ...        0 min,  0.149 sec
 * total energy  :  -124.2711739 Eh     change       -0.6035213E-04 Eh
   gradient norm :     0.0028521 Eh/α   predicted     0.0000000E+00 (-100.00%)
   displ. norm   :     0.0340738 α      lambda       -0.1929939E-04
   maximum displ.:     0.0150027 α      in ANC's #10, #7, #8, ...

........................................................................
.............................. CYCLE   22 ..............................
........................................................................

 iter      E             dE          RMSdq      gap      omega  full diag
   1   -126.4543434 -0.126454E+03  0.885E-03    2.25       0.0  T
   2   -126.4543435 -0.753596E-07  0.487E-03    2.25       2.3  T
   3   -126.4543435  0.587378E-07  0.136E-03    2.25       8.2  T
   4   -126.4543435 -0.677354E-07  0.610E-04    2.25      18.2  T
   5   -126.4543435 -0.812152E-08  0.308E-04    2.25      36.1  T
     SCC iter.                  ...        0 min,  0.811 sec
     gradient                   ...        0 min,  0.150 sec
 * total energy  :  -124.2711940 Eh     change       -0.2011214E-04 Eh
   gradient norm :     0.0015610 Eh/α   predicted    -0.1220910E-04 ( -39.29%)
   displ. norm   :     0.1606691 α      lambda       -0.4817252E-04
   maximum displ.:     0.0719275 α      in ANC's #10, #7, #8, ...

........................................................................
.............................. CYCLE   23 ..............................
........................................................................

 iter      E             dE          RMSdq      gap      omega  full diag
   1   -126.4556404 -0.126456E+03  0.338E-02    2.25       0.0  T
   2   -126.4556408 -0.388381E-06  0.198E-02    2.25       1.0  T
   3   -126.4556390  0.179218E-05  0.457E-03    2.25       2.4  T
   4   -126.4556409 -0.195986E-05  0.133E-03    2.25       8.3  T
   5   -126.4556410 -0.683414E-07  0.681E-04    2.25      16.3  T
   6   -126.4556410 -0.200301E-07  0.324E-04    2.25      34.3  T
     SCC iter.                  ...        0 min,  1.060 sec
     gradient                   ...        0 min,  0.125 sec
 * total energy  :  -124.2712257 Eh     change       -0.3164472E-04 Eh
   gradient norm :     0.0029967 Eh/α   predicted    -0.2436334E-04 ( -23.01%)
   displ. norm   :     0.0328857 α      lambda       -0.1453464E-04
   maximum displ.:     0.0145050 α      in ANC's #10, #2, #7, ...

........................................................................
.............................. CYCLE   24 ..............................
........................................................................

 iter      E             dE          RMSdq      gap      omega  full diag
   1   -126.4551826 -0.126455E+03  0.997E-03    2.25       0.0  T
   2   -126.4551828 -0.134916E-06  0.506E-03    2.25       2.2  T
   3   -126.4551827  0.176924E-07  0.151E-03    2.25       7.3  T
   4   -126.4551828 -0.172678E-07  0.770E-04    2.25      14.4  T
   5   -126.4551828 -0.221861E-07  0.292E-04    2.25      38.1  T
     SCC iter.                  ...        0 min,  0.909 sec
     gradient                   ...        0 min,  0.116 sec
 * total energy  :  -124.2712373 Eh     change       -0.1161220E-04 Eh
   gradient norm :     0.0021727 Eh/α   predicted    -0.7276452E-05 ( -37.34%)
   displ. norm   :     0.1076312 α      lambda       -0.3645044E-04
   maximum displ.:     0.0457011 α      in ANC's #2, #10, #5, ...

........................................................................
.............................. CYCLE   25 ..............................
........................................................................

 iter      E             dE          RMSdq      gap      omega  full diag
   1   -126.4538230 -0.126454E+03  0.242E-02    2.25       0.0  T
   2   -126.4538232 -0.192658E-06  0.140E-02    2.25       1.0  T
   3   -126.4538228  0.410284E-06  0.261E-03    2.25       4.3  T
   4   -126.4538232 -0.474327E-06  0.835E-04    2.25      13.3  T
   5   -126.4538233 -0.110382E-07  0.465E-04    2.25      23.9  T
     SCC iter.                  ...        0 min,  0.799 sec
     gradient                   ...        0 min,  0.120 sec
 * total energy  :  -124.2712596 Eh     change       -0.2232442E-04 Eh
   gradient norm :     0.0013986 Eh/α   predicted    -0.1843689E-04 ( -17.41%)
   displ. norm   :     0.1415015 α      lambda       -0.1547254E-04
   maximum displ.:     0.0620923 α      in ANC's #2, #10, #5, ...

........................................................................
.............................. CYCLE   26 ..............................
........................................................................

 iter      E             dE          RMSdq      gap      omega  full diag
   1   -126.4534365 -0.126453E+03  0.308E-02    2.25       0.0  T
   2   -126.4534368 -0.356384E-06  0.175E-02    2.25       1.0  T
   3   -126.4534361  0.684947E-06  0.387E-03    2.25       2.9  T
   4   -126.4534369 -0.736347E-06  0.139E-03    2.25       8.0  T
   5   -126.4534369 -0.652769E-07  0.700E-04    2.25      15.9  T
   6   -126.4534370 -0.372880E-07  0.220E-04    2.25      50.5  T
     SCC iter.                  ...        0 min,  1.056 sec
     gradient                   ...        0 min,  0.118 sec
 * total energy  :  -124.2712767 Eh     change       -0.1715603E-04 Eh
   gradient norm :     0.0021507 Eh/α   predicted    -0.7806146E-05 ( -54.50%)
   displ. norm   :     0.1377833 α      lambda       -0.2336355E-04
   maximum displ.:     0.0621044 α      in ANC's #2, #10, #5, ...

........................................................................
.............................. CYCLE   27 ..............................
........................................................................

 iter      E             dE          RMSdq      gap      omega  full diag
   1   -126.4537552 -0.126454E+03  0.284E-02    2.25       0.0  T
   2   -126.4537553 -0.132337E-06  0.166E-02    2.25       1.0  T
   3   -126.4537545  0.800117E-06  0.297E-03    2.25       3.7  T
   4   -126.4537554 -0.881684E-06  0.722E-04    2.25      15.4  T
   5   -126.4537554 -0.208204E-07  0.405E-04    2.25      27.5  T
     SCC iter.                  ...        0 min,  0.789 sec
     gradient                   ...        0 min,  0.117 sec
 * total energy  :  -124.2712962 Eh     change       -0.1949418E-04 Eh
   gradient norm :     0.0018285 Eh/α   predicted    -0.1190391E-04 ( -38.94%)
   displ. norm   :     0.3426012 α      lambda       -0.3331752E-04
   maximum displ.:     0.1578056 α      in ANC's #2, #10, #5, ...

........................................................................
.............................. CYCLE   28 ..............................
........................................................................

 iter      E             dE          RMSdq      gap      omega  full diag
   1   -126.4544866 -0.126454E+03  0.714E-02    2.26       0.0  T
   2   -126.4544878 -0.120243E-05  0.411E-02    2.26       1.0  T
   3   -126.4544824  0.544341E-05  0.871E-03    2.25       1.3  T
   4   -126.4544882 -0.584063E-05  0.279E-03    2.26       4.0  T
   5   -126.4544885 -0.272480E-06  0.148E-03    2.26       7.5  T
   6   -126.4544887 -0.173837E-06  0.308E-04    2.26      36.1  T
   7   -126.4544887 -0.983590E-09  0.188E-04    2.26      59.2  T
     SCC iter.                  ...        0 min,  1.043 sec
     gradient                   ...        0 min,  0.168 sec
 * total energy  :  -124.2713250 Eh     change       -0.2876904E-04 Eh
   gradient norm :     0.0014671 Eh/α   predicted    -0.1753125E-04 ( -39.06%)
   displ. norm   :     0.1141025 α      lambda       -0.9267061E-05
   maximum displ.:     0.0562137 α      in ANC's #2, #5, #1, ...

........................................................................
.............................. CYCLE   29 ..............................
........................................................................

 iter      E             dE          RMSdq      gap      omega  full diag
   1   -126.4549419 -0.126455E+03  0.221E-02    2.26       0.0  T
   2   -126.4549421 -0.132554E-06  0.127E-02    2.26       1.0  T
   3   -126.4549415  0.550949E-06  0.271E-03    2.26       4.1  T
   4   -126.4549421 -0.581875E-06  0.996E-04    2.26      11.2  T
   5   -126.4549421 -0.423585E-07  0.469E-04    2.26      23.7  T
     SCC iter.                  ...        0 min,  0.824 sec
     gradient                   ...        0 min,  0.123 sec
 * total energy  :  -124.2713363 Eh     change       -0.1131514E-04 Eh
   gradient norm :     0.0009656 Eh/α   predicted    -0.4661021E-05 ( -58.81%)
   displ. norm   :     0.1348729 α      lambda       -0.1462274E-04
   maximum displ.:     0.0663317 α      in ANC's #2, #5, #1, ...

........................................................................
.............................. CYCLE   30 ..............................
........................................................................

 iter      E             dE          RMSdq      gap      omega  full diag
   1   -126.4555970 -0.126456E+03  0.257E-02    2.26       0.0  T
   2   -126.4555973 -0.323344E-06  0.143E-02    2.26       1.0  T
   3   -126.4555965  0.791507E-06  0.384E-03    2.26       2.9  T
   4   -126.4555973 -0.807758E-06  0.166E-03    2.26       6.7  T
   5   -126.4555974 -0.109124E-06  0.730E-04    2.26      15.2  T
   6   -126.4555975 -0.440869E-07  0.167E-04    2.26      66.6  T
     SCC iter.                  ...        0 min,  1.029 sec
     gradient                   ...        0 min,  0.163 sec
 * total energy  :  -124.2713521 Eh     change       -0.1572925E-04 Eh
   gradient norm :     0.0008992 Eh/α   predicted    -0.7374426E-05 ( -53.12%)
   displ. norm   :     0.1396497 α      lambda       -0.1039011E-04
   maximum displ.:     0.0705765 α      in ANC's #2, #5, #1, ...

........................................................................
.............................. CYCLE   31 ..............................
........................................................................

 iter      E             dE          RMSdq      gap      omega  full diag
   1   -126.4549827 -0.126455E+03  0.258E-02    2.26       0.0  T
   2   -126.4549830 -0.322670E-06  0.141E-02    2.26       1.0  T
   3   -126.4549824  0.659243E-06  0.364E-03    2.26       3.1  T
   4   -126.4549830 -0.601853E-06  0.185E-03    2.26       6.0  T
   5   -126.4549832 -0.177957E-06  0.644E-04    2.26      17.3  T
   6   -126.4549832 -0.333066E-07  0.164E-04    2.26      67.7  T
     SCC iter.                  ...        0 min,  1.059 sec
     gradient                   ...        0 min,  0.115 sec
 * total energy  :  -124.2713632 Eh     change       -0.1115695E-04 Eh
   gradient norm :     0.0010949 Eh/α   predicted    -0.5242610E-05 ( -53.01%)
   displ. norm   :     0.1134760 α      lambda       -0.7963044E-05
   maximum displ.:     0.0582188 α      in ANC's #2, #1, #5, ...

........................................................................
.............................. CYCLE   32 ..............................
........................................................................

 iter      E             dE          RMSdq      gap      omega  full diag
   1   -126.4549700 -0.126455E+03  0.197E-02    2.26       0.0  T
   2   -126.4549702 -0.229742E-06  0.107E-02    2.26       1.0  T
   3   -126.4549698  0.463753E-06  0.309E-03    2.26       3.6  T
   4   -126.4549702 -0.433270E-06  0.161E-03    2.26       6.9  T
   5   -126.4549703 -0.119600E-06  0.554E-04    2.26      20.1  T
   6   -126.4549703 -0.231127E-07  0.154E-04    2.26      72.3  T
     SCC iter.                  ...        0 min,  1.100 sec
     gradient                   ...        0 min,  0.128 sec
 * total energy  :  -124.2713731 Eh     change       -0.9878069E-05 Eh
   gradient norm :     0.0010633 Eh/α   predicted    -0.4008000E-05 ( -59.43%)
   displ. norm   :     0.1546460 α      lambda       -0.1120134E-04
   maximum displ.:     0.0812619 α      in ANC's #2, #1, #5, ...

........................................................................
.............................. CYCLE   33 ..............................
........................................................................

 iter      E             dE          RMSdq      gap      omega  full diag
   1   -126.4546560 -0.126455E+03  0.254E-02    2.26       0.0  T
   2   -126.4546564 -0.404413E-06  0.137E-02    2.26       1.0  T
   3   -126.4546556  0.799275E-06  0.404E-03    2.26       2.8  T
   4   -126.4546563 -0.743890E-06  0.217E-03    2.26       5.1  T
   5   -126.4546565 -0.215672E-06  0.738E-04    2.26      15.0  T
   6   -126.4546566 -0.389401E-07  0.205E-04    2.26      54.1  T
     SCC iter.                  ...        0 min,  0.985 sec
     gradient                   ...        0 min,  0.160 sec
 * total energy  :  -124.2713866 Eh     change       -0.1347362E-04 Eh
   gradient norm :     0.0007619 Eh/α   predicted    -0.5661353E-05 ( -57.98%)
   displ. norm   :     0.1958086 α      lambda       -0.1195817E-04
   maximum displ.:     0.1049443 α      in ANC's #2, #1, #5, ...

........................................................................
.............................. CYCLE   34 ..............................
........................................................................

 iter      E             dE          RMSdq      gap      omega  full diag
   1   -126.4543539 -0.126454E+03  0.304E-02    2.26       0.0  T
   2   -126.4543545 -0.562034E-06  0.164E-02    2.26       1.0  T
   3   -126.4543534  0.104781E-05  0.472E-03    2.26       2.4  T
   4   -126.4543544 -0.933036E-06  0.265E-03    2.26       4.2  T
   5   -126.4543547 -0.335130E-06  0.874E-04    2.26      12.7  T
   6   -126.4543548 -0.516058E-07  0.248E-04    2.26      44.8  T
     SCC iter.                  ...        0 min,  0.943 sec
     gradient                   ...        0 min,  0.116 sec
 * total energy  :  -124.2714002 Eh     change       -0.1362720E-04 Eh
   gradient norm :     0.0007548 Eh/α   predicted    -0.6082822E-05 ( -55.36%)
   displ. norm   :     0.1987782 α      lambda       -0.1032225E-04
   maximum displ.:     0.1079963 α      in ANC's #2, #1, #5, ...

........................................................................
.............................. CYCLE   35 ..............................
........................................................................

 iter      E             dE          RMSdq      gap      omega  full diag
   1   -126.4543267 -0.126454E+03  0.287E-02    2.26       0.0  T
   2   -126.4543272 -0.463818E-06  0.156E-02    2.26       1.0  T
   3   -126.4543261  0.107127E-05  0.460E-03    2.26       2.4  T
   4   -126.4543272 -0.105510E-05  0.227E-03    2.26       4.9  T
   5   -126.4543274 -0.214100E-06  0.868E-04    2.26      12.8  T
   6   -126.4543274 -0.531931E-07  0.218E-04    2.26      50.9  T
     SCC iter.                  ...        0 min,  1.068 sec
     gradient                   ...        0 min,  0.116 sec
 * total energy  :  -124.2714120 Eh     change       -0.1179549E-04 Eh
   gradient norm :     0.0010031 Eh/α   predicted    -0.5255817E-05 ( -55.44%)
   displ. norm   :     0.2073861 α      lambda       -0.1069145E-04
   maximum displ.:     0.1135992 α      in ANC's #2, #1, #5, ...

........................................................................
.............................. CYCLE   36 ..............................
........................................................................

 iter      E             dE          RMSdq      gap      omega  full diag
   1   -126.4544864 -0.126454E+03  0.285E-02    2.26       0.0  T
   2   -126.4544868 -0.387673E-06  0.156E-02    2.26       1.0  T
   3   -126.4544857  0.108114E-05  0.456E-03    2.26       2.4  T
   4   -126.4544868 -0.110871E-05  0.205E-03    2.26       5.4  T
   5   -126.4544870 -0.161718E-06  0.796E-04    2.26      14.0  T
   6   -126.4544870 -0.416455E-07  0.217E-04    2.26      51.2  T
     SCC iter.                  ...        0 min,  1.035 sec
     gradient                   ...        0 min,  0.151 sec
 * total energy  :  -124.2714238 Eh     change       -0.1184193E-04 Eh
   gradient norm :     0.0010199 Eh/α   predicted    -0.5452886E-05 ( -53.95%)
   displ. norm   :     0.1827964 α      lambda       -0.8887501E-05
   maximum displ.:     0.1015045 α      in ANC's #2, #1, #5, ...

........................................................................
.............................. CYCLE   37 ..............................
........................................................................

 iter      E             dE          RMSdq      gap      omega  full diag
   1   -126.4548812 -0.126455E+03  0.244E-02    2.26       0.0  T
   2   -126.4548814 -0.270720E-06  0.135E-02    2.26       1.0  T
   3   -126.4548804  0.101515E-05  0.417E-03    2.26       2.7  T
   4   -126.4548815 -0.111839E-05  0.149E-03    2.26       7.5  T
   5   -126.4548816 -0.576855E-07  0.670E-04    2.26      16.6  T
   6   -126.4548816 -0.292973E-07  0.186E-04    2.26      59.8  T
     SCC iter.                  ...        0 min,  1.010 sec
     gradient                   ...        0 min,  0.117 sec
 * total energy  :  -124.2714331 Eh     change       -0.9284198E-05 Eh
   gradient norm :     0.0006625 Eh/α   predicted    -0.4512190E-05 ( -51.40%)
   displ. norm   :     0.1026605 α      lambda       -0.4326101E-05
   maximum displ.:     0.0590790 α      in ANC's #2, #1, #5, ...

........................................................................
.............................. CYCLE   38 ..............................
........................................................................

 iter      E             dE          RMSdq      gap      omega  full diag
   1   -126.4551382 -0.126455E+03  0.133E-02    2.26       0.0  T
   2   -126.4551383 -0.740434E-07  0.749E-03    2.26       1.5  T
   3   -126.4551379  0.361175E-06  0.238E-03    2.26       4.7  T
   4   -126.4551383 -0.400222E-06  0.714E-04    2.26      15.6  T
   5   -126.4551383 -0.149140E-07  0.321E-04    2.26      34.7  T
     SCC iter.                  ...        0 min,  1.066 sec
     gradient                   ...        0 min,  0.125 sec
 * total energy  :  -124.2714378 Eh     change       -0.4682480E-05 Eh
   gradient norm :     0.0003460 Eh/α   predicted    -0.2177932E-05 ( -53.49%)
   displ. norm   :     0.1026605 α      lambda        0.0000000E+00
   maximum displ.:     0.0590790 α      in ANC's #2, #1, #5, ...

........................................................................
.............................. CYCLE   39 ..............................
........................................................................

 iter      E             dE          RMSdq      gap      omega  full diag
   1   -126.4553251 -0.126455E+03  0.133E-02    2.26       0.0  T
   2   -126.4553252 -0.760951E-07  0.749E-03    2.26       1.5  T
   3   -126.4553248  0.358143E-06  0.240E-03    2.26       4.6  T
   4   -126.4553252 -0.402661E-06  0.691E-04    2.26      16.1  T
   5   -126.4553252 -0.117409E-07  0.309E-04    2.26      36.0  T
     SCC iter.                  ...        0 min,  0.744 sec
     gradient                   ...        0 min,  0.173 sec
 * total energy  :  -124.2714388 Eh     change       -0.1040900E-05 Eh
   gradient norm :     0.0006881 Eh/α   predicted     0.2400591E-08 (-100.23%)
   displ. norm   :     0.0183907 α      lambda       -0.2409999E-05
   maximum displ.:     0.0067171 α      in ANC's #1, #4, #10, ...

........................................................................
.............................. CYCLE   40 ..............................
........................................................................

 iter      E             dE          RMSdq      gap      omega  full diag
   1   -126.4553516 -0.126455E+03  0.402E-03    2.26       0.0  T
   2   -126.4553516 -0.802815E-08  0.235E-03    2.26       4.7  T
   3   -126.4553516  0.304305E-07  0.704E-04    2.26      15.8  T
   4   -126.4553516 -0.307938E-07  0.244E-04    2.26      45.6  T
     SCC iter.                  ...        0 min,  0.644 sec
     gradient                   ...        0 min,  0.116 sec
 * total energy  :  -124.2714416 Eh     change       -0.2794086E-05 Eh
   gradient norm :     0.0004966 Eh/α   predicted    -0.1206209E-05 ( -56.83%)
   displ. norm   :     0.0566372 α      lambda       -0.5097289E-05
   maximum displ.:     0.0204321 α      in ANC's #12, #4, #1, ...

........................................................................
.............................. CYCLE   41 ..............................
........................................................................

 iter      E             dE          RMSdq      gap      omega  full diag
   1   -126.4552198 -0.126455E+03  0.103E-02    2.26       0.0  T
   2   -126.4552198 -0.412403E-07  0.594E-03    2.26       1.9  T
   3   -126.4552197  0.129432E-06  0.136E-03    2.26       8.1  T
   4   -126.4552198 -0.132432E-06  0.498E-04    2.26      22.3  T
   5   -126.4552198 -0.168076E-07  0.202E-04    2.26      55.0  T
     SCC iter.                  ...        0 min,  0.805 sec
     gradient                   ...        0 min,  0.116 sec
 * total energy  :  -124.2714473 Eh     change       -0.5652980E-05 Eh
   gradient norm :     0.0006142 Eh/α   predicted    -0.2554685E-05 ( -54.81%)
   displ. norm   :     0.0801461 α      lambda       -0.4758238E-05
   maximum displ.:     0.0342839 α      in ANC's #1, #4, #2, ...

........................................................................
.............................. CYCLE   42 ..............................
........................................................................

 iter      E             dE          RMSdq      gap      omega  full diag
   1   -126.4550765 -0.126455E+03  0.131E-02    2.26       0.0  T
   2   -126.4550766 -0.703636E-07  0.752E-03    2.26       1.5  T
   3   -126.4550764  0.169601E-06  0.164E-03    2.26       6.8  T
   4   -126.4550766 -0.178369E-06  0.665E-04    2.26      16.7  T
   5   -126.4550766 -0.206018E-07  0.276E-04    2.26      40.2  T
     SCC iter.                  ...        0 min,  0.868 sec
     gradient                   ...        0 min,  0.149 sec
 * total energy  :  -124.2714523 Eh     change       -0.5050022E-05 Eh
   gradient norm :     0.0006102 Eh/α   predicted    -0.2390856E-05 ( -52.66%)
   displ. norm   :     0.0833244 α      lambda       -0.3633059E-05
   maximum displ.:     0.0427156 α      in ANC's #1, #2, #4, ...
 * RMSD in coord.:     0.2486392 α      energy gain  -0.3387872E-03 Eh

generating ANC from exact Hessian ...
Using Lindh-Hessian (1995)
 Shifting diagonal of input Hessian by    9.8570082986714075E-003
 Lowest  eigenvalues of input Hessian
    0.000000    0.000000    0.000000    0.000000    0.000000    0.000000
    0.010000    0.010086    0.010252    0.010261    0.010388    0.010530
    0.010690    0.010963    0.011193    0.011284    0.011531    0.011595
 Highest eigenvalues
    2.065234    2.074135    2.084949    2.109798    2.125642    2.128766


........................................................................
.............................. CYCLE   43 ..............................
........................................................................

 iter      E             dE          RMSdq      gap      omega  full diag
   1   -126.4550630 -0.126455E+03  0.114E-02    2.26       0.0  T
   2   -126.4550630 -0.519784E-07  0.655E-03    2.26       1.7  T
   3   -126.4550629  0.158582E-06  0.157E-03    2.26       7.1  T
   4   -126.4550630 -0.171530E-06  0.574E-04    2.25      19.4  T
   5   -126.4550630 -0.134760E-07  0.216E-04    2.26      51.5  T
     SCC iter.                  ...        0 min,  0.827 sec
     gradient                   ...        0 min,  0.132 sec
 * total energy  :  -124.2714565 Eh     change       -0.4183579E-05 Eh
   gradient norm :     0.0004626 Eh/α   predicted     0.0000000E+00 (-100.00%)
   displ. norm   :     0.0157136 α      lambda       -0.1798524E-05
   maximum displ.:     0.0062364 α      in ANC's #2, #3, #20, ...

........................................................................
.............................. CYCLE   44 ..............................
........................................................................

 iter      E             dE          RMSdq      gap      omega  full diag
   1   -126.4549897 -0.126455E+03  0.448E-03    2.25       0.0  T
   2   -126.4549898 -0.197322E-07  0.241E-03    2.26       4.6  T
   3   -126.4549898  0.663606E-08  0.644E-04    2.26      17.2  T
   4   -126.4549898 -0.548047E-08  0.325E-04    2.26      34.2  T
     SCC iter.                  ...        0 min,  0.632 sec
     gradient                   ...        0 min,  0.116 sec
 * total energy  :  -124.2714585 Eh     change       -0.2030476E-05 Eh
   gradient norm :     0.0002832 Eh/α   predicted    -0.9044010E-06 ( -55.46%)
   displ. norm   :     0.0506085 α      lambda       -0.4080013E-05
   maximum displ.:     0.0208287 α      in ANC's #2, #3, #20, ...

........................................................................
.............................. CYCLE   45 ..............................
........................................................................

 iter      E             dE          RMSdq      gap      omega  full diag
   1   -126.4549711 -0.126455E+03  0.128E-02    2.26       0.0  T
   2   -126.4549712 -0.686271E-07  0.736E-03    2.26       1.5  T
   3   -126.4549711  0.938056E-07  0.146E-03    2.26       7.6  T
   4   -126.4549712 -0.105495E-06  0.501E-04    2.26      22.2  T
   5   -126.4549712 -0.842199E-08  0.246E-04    2.26      45.2  T
     SCC iter.                  ...        0 min,  0.919 sec
     gradient                   ...        0 min,  0.152 sec
 * total energy  :  -124.2714618 Eh     change       -0.3292478E-05 Eh
   gradient norm :     0.0006505 Eh/α   predicted    -0.2043260E-05 ( -37.94%)
   displ. norm   :     0.0441293 α      lambda       -0.2874707E-05
   maximum displ.:     0.0201068 α      in ANC's #2, #3, #1, ...

........................................................................
.............................. CYCLE   46 ..............................
........................................................................

 iter      E             dE          RMSdq      gap      omega  full diag
   1   -126.4551526 -0.126455E+03  0.107E-02    2.25       0.0  T
   2   -126.4551527 -0.108960E-06  0.579E-03    2.26       1.9  T
   3   -126.4551528 -0.258541E-08  0.129E-03    2.26       8.6  T
   4   -126.4551527  0.186836E-08  0.595E-04    2.26      18.7  T
   5   -126.4551528 -0.129922E-07  0.232E-04    2.26      47.8  T
     SCC iter.                  ...        0 min,  0.497 sec
     gradient                   ...        0 min,  0.126 sec
 * total energy  :  -124.2714638 Eh     change       -0.1918137E-05 Eh
   gradient norm :     0.0005242 Eh/α   predicted    -0.1438755E-05 ( -24.99%)
   displ. norm   :     0.0204416 α      lambda       -0.1503335E-05
   maximum displ.:     0.0105162 α      in ANC's #2, #3, #1, ...

........................................................................
.............................. CYCLE   47 ..............................
........................................................................

 iter      E             dE          RMSdq      gap      omega  full diag
   1   -126.4552296 -0.126455E+03  0.401E-03    2.26       0.0  T
   2   -126.4552296 -0.798379E-08  0.232E-03    2.26       4.8  T
   3   -126.4552296  0.162077E-07  0.496E-04    2.26      22.4  T
   4   -126.4552296 -0.168472E-07  0.196E-04    2.26      56.7  T
     SCC iter.                  ...        0 min,  0.624 sec
     gradient                   ...        0 min,  0.116 sec
 * total energy  :  -124.2714656 Eh     change       -0.1833572E-05 Eh
   gradient norm :     0.0003131 Eh/α   predicted    -0.7522608E-06 ( -58.97%)
   displ. norm   :     0.0523847 α      lambda       -0.3024393E-05
   maximum displ.:     0.0266210 α      in ANC's #2, #3, #1, ...

........................................................................
.............................. CYCLE   48 ..............................
........................................................................

 iter      E             dE          RMSdq      gap      omega  full diag
   1   -126.4551557 -0.126455E+03  0.953E-03    2.26       0.0  T
   2   -126.4551558 -0.417538E-07  0.536E-03    2.25       2.1  T
   3   -126.4551556  0.133184E-06  0.144E-03    2.25       7.7  T
   4   -126.4551558 -0.133171E-06  0.616E-04    2.25      18.0  T
   5   -126.4551558 -0.196213E-07  0.253E-04    2.25      43.9  T
     SCC iter.                  ...        0 min,  0.957 sec
     gradient                   ...        0 min,  0.116 sec
 * total energy  :  -124.2714690 Eh     change       -0.3395448E-05 Eh
   gradient norm :     0.0004103 Eh/α   predicted    -0.1514416E-05 ( -55.40%)
   displ. norm   :     0.0753989 α      lambda       -0.2770257E-05
   maximum displ.:     0.0391659 α      in ANC's #2, #3, #1, ...

........................................................................
.............................. CYCLE   49 ..............................
........................................................................

 iter      E             dE          RMSdq      gap      omega  full diag
   1   -126.4550282 -0.126455E+03  0.119E-02    2.25       0.0  T
   2   -126.4550282 -0.411754E-07  0.700E-03    2.25       1.6  T
   3   -126.4550280  0.205778E-06  0.153E-03    2.25       7.2  T
   4   -126.4550282 -0.231081E-06  0.293E-04    2.25      38.0  T
   5   -126.4550282 -0.345602E-08  0.162E-04    2.25      68.4  T
     SCC iter.                  ...        0 min,  0.480 sec
     gradient                   ...        0 min,  0.115 sec
 * total energy  :  -124.2714724 Eh     change       -0.3395212E-05 Eh
   gradient norm :     0.0005769 Eh/α   predicted    -0.1391169E-05 ( -59.03%)
   displ. norm   :     0.0965970 α      lambda       -0.3207911E-05
   maximum displ.:     0.0506253 α      in ANC's #2, #3, #1, ...

........................................................................
.............................. CYCLE   50 ..............................
........................................................................

 iter      E             dE          RMSdq      gap      omega  full diag
   1   -126.4549244 -0.126455E+03  0.146E-02    2.25       0.0  T
   2   -126.4549245 -0.740793E-07  0.845E-03    2.25       1.3  T
   3   -126.4549241  0.322575E-06  0.203E-03    2.25       5.5  T
   4   -126.4549245 -0.360506E-06  0.460E-04    2.25      24.2  T
   5   -126.4549245 -0.647749E-08  0.266E-04    2.25      41.7  T
     SCC iter.                  ...        0 min,  0.711 sec
     gradient                   ...        0 min,  0.116 sec
 * total energy  :  -124.2714764 Eh     change       -0.4068526E-05 Eh
   gradient norm :     0.0005582 Eh/α   predicted    -0.1612483E-05 ( -60.37%)
   displ. norm   :     0.1342816 α      lambda       -0.4309335E-05
   maximum displ.:     0.0706969 α      in ANC's #2, #3, #1, ...

........................................................................
.............................. CYCLE   51 ..............................
........................................................................

 iter      E             dE          RMSdq      gap      omega  full diag
   1   -126.4547600 -0.126455E+03  0.198E-02    2.25       0.0  T
   2   -126.4547602 -0.151722E-06  0.114E-02    2.25       1.0  T
   3   -126.4547597  0.484969E-06  0.266E-03    2.25       4.2  T
   4   -126.4547602 -0.531524E-06  0.860E-04    2.25      12.9  T
   5   -126.4547602 -0.256925E-07  0.423E-04    2.25      26.3  T
     SCC iter.                  ...        0 min,  0.857 sec
     gradient                   ...        0 min,  0.116 sec
 * total energy  :  -124.2714817 Eh     change       -0.5267044E-05 Eh
   gradient norm :     0.0004698 Eh/α   predicted    -0.2172361E-05 ( -58.76%)
   displ. norm   :     0.1620934 α      lambda       -0.4694310E-05
   maximum displ.:     0.0859323 α      in ANC's #2, #1, #3, ...

........................................................................
.............................. CYCLE   52 ..............................
........................................................................

 iter      E             dE          RMSdq      gap      omega  full diag
   1   -126.4547257 -0.126455E+03  0.227E-02    2.25       0.0  T
   2   -126.4547259 -0.179597E-06  0.132E-02    2.25       1.0  T
   3   -126.4547249  0.983920E-06  0.354E-03    2.25       3.1  T
   4   -126.4547260 -0.109213E-05  0.761E-04    2.25      14.6  T
   5   -126.4547260 -0.190809E-07  0.434E-04    2.25      25.6  T
   6   -126.4547261 -0.118692E-07  0.160E-04    2.25      69.3  T
     SCC iter.                  ...        0 min,  1.024 sec
     gradient                   ...        0 min,  0.137 sec
 * total energy  :  -124.2714873 Eh     change       -0.5545920E-05 Eh
   gradient norm :     0.0004506 Eh/α   predicted    -0.2374781E-05 ( -57.18%)
   displ. norm   :     0.1614617 α      lambda       -0.4002599E-05
   maximum displ.:     0.0869343 α      in ANC's #1, #2, #3, ...

........................................................................
.............................. CYCLE   53 ..............................
........................................................................

 iter      E             dE          RMSdq      gap      omega  full diag
   1   -126.4547602 -0.126455E+03  0.225E-02    2.25       0.0  T
   2   -126.4547604 -0.193480E-06  0.128E-02    2.24       1.0  T
   3   -126.4547596  0.798354E-06  0.342E-03    2.25       3.2  T
   4   -126.4547604 -0.854828E-06  0.119E-03    2.24       9.4  T
   5   -126.4547605 -0.516345E-07  0.532E-04    2.24      20.9  T
   6   -126.4547605 -0.212329E-07  0.157E-04    2.24      70.6  T
     SCC iter.                  ...        0 min,  0.905 sec
     gradient                   ...        0 min,  0.120 sec
 * total energy  :  -124.2714919 Eh     change       -0.4627734E-05 Eh
   gradient norm :     0.0004229 Eh/α   predicted    -0.2029464E-05 ( -56.15%)
   displ. norm   :     0.1114785 α      lambda       -0.2676557E-05
   maximum displ.:     0.0627484 α      in ANC's #1, #2, #3, ...

........................................................................
.............................. CYCLE   54 ..............................
........................................................................

 iter      E             dE          RMSdq      gap      omega  full diag
   1   -126.4549533 -0.126455E+03  0.146E-02    2.24       0.0  T
   2   -126.4549534 -0.713764E-07  0.841E-03    2.24       1.3  T
   3   -126.4549529  0.473169E-06  0.248E-03    2.24       4.5  T
   4   -126.4549534 -0.515830E-06  0.679E-04    2.24      16.4  T
   5   -126.4549534 -0.145874E-07  0.327E-04    2.24      34.0  T
     SCC iter.                  ...        0 min,  0.838 sec
     gradient                   ...        0 min,  0.155 sec
 * total energy  :  -124.2714950 Eh     change       -0.3134233E-05 Eh
   gradient norm :     0.0003122 Eh/α   predicted    -0.1347724E-05 ( -57.00%)
   displ. norm   :     0.0800510 α      lambda       -0.1968716E-05
   maximum displ.:     0.0473558 α      in ANC's #1, #2, #3, ...

........................................................................
.............................. CYCLE   55 ..............................
........................................................................

 iter      E             dE          RMSdq      gap      omega  full diag
   1   -126.4550725 -0.126455E+03  0.102E-02    2.24       0.0  T
   2   -126.4550725 -0.372162E-07  0.580E-03    2.24       1.9  T
   3   -126.4550723  0.207878E-06  0.172E-03    2.24       6.4  T
   4   -126.4550725 -0.226312E-06  0.523E-04    2.24      21.3  T
   5   -126.4550725 -0.846053E-08  0.233E-04    2.24      47.6  T
     SCC iter.                  ...        0 min,  0.996 sec
     gradient                   ...        0 min,  0.119 sec
 * total energy  :  -124.2714973 Eh     change       -0.2291159E-05 Eh
   gradient norm :     0.0002141 Eh/α   predicted    -0.9897693E-06 ( -56.80%)
   displ. norm   :     0.0578183 α      lambda       -0.1366605E-05
   maximum displ.:     0.0353165 α      in ANC's #1, #2, #3, ...

........................................................................
.............................. CYCLE   56 ..............................
........................................................................

 iter      E             dE          RMSdq      gap      omega  full diag
   1   -126.4550785 -0.126455E+03  0.724E-03    2.24       0.0  T
   2   -126.4550785 -0.206400E-07  0.410E-03    2.24       2.7  T
   3   -126.4550785  0.732133E-07  0.112E-03    2.24       9.9  T
   4   -126.4550786 -0.788265E-07  0.392E-04    2.24      28.3  T
   5   -126.4550786 -0.541424E-08  0.162E-04    2.24      68.4  T
     SCC iter.                  ...        0 min,  1.031 sec
     gradient                   ...        0 min,  0.119 sec
 * total energy  :  -124.2714989 Eh     change       -0.1601972E-05 Eh
   gradient norm :     0.0001994 Eh/α   predicted    -0.6883140E-06 ( -57.03%)
   displ. norm   :     0.0470218 α      lambda       -0.9875911E-06
   maximum displ.:     0.0289452 α      in ANC's #1, #2, #3, ...

........................................................................
.............................. CYCLE   57 ..............................
........................................................................

 iter      E             dE          RMSdq      gap      omega  full diag
   1   -126.4550541 -0.126455E+03  0.556E-03    2.24       0.0  T
   2   -126.4550541 -0.995502E-08  0.318E-03    2.24       3.5  T
   3   -126.4550540  0.312062E-07  0.738E-04    2.24      15.0  T
   4   -126.4550541 -0.336102E-07  0.257E-04    2.24      43.2  T
     SCC iter.                  ...        0 min,  0.956 sec
     gradient                   ...        0 min,  0.122 sec
 * total energy  :  -124.2715001 Eh     change       -0.1186749E-05 Eh
   gradient norm :     0.0002010 Eh/α   predicted    -0.4986831E-06 ( -57.98%)
   displ. norm   :     0.0448552 α      lambda       -0.8810412E-06
   maximum displ.:     0.0280374 α      in ANC's #1, #2, #3, ...

........................................................................
.............................. CYCLE   58 ..............................
........................................................................

 iter      E             dE          RMSdq      gap      omega  full diag
   1   -126.4550152 -0.126455E+03  0.522E-03    2.24       0.0  T
   2   -126.4550153 -0.930710E-08  0.294E-03    2.24       3.8  T
   3   -126.4550152  0.311183E-07  0.759E-04    2.24      14.6  T
   4   -126.4550153 -0.310261E-07  0.317E-04    2.24      35.1  T
     SCC iter.                  ...        0 min,  0.815 sec
     gradient                   ...        0 min,  0.124 sec
 * total energy  :  -124.2715012 Eh     change       -0.1059123E-05 Eh
   gradient norm :     0.0001565 Eh/α   predicted    -0.4424523E-06 ( -58.22%)
   displ. norm   :     0.0421814 α      lambda       -0.8070241E-06
   maximum displ.:     0.0266423 α      in ANC's #1, #2, #4, ...

........................................................................
.............................. CYCLE   59 ..............................
........................................................................

 iter      E             dE          RMSdq      gap      omega  full diag
   1   -126.4549744 -0.126455E+03  0.489E-03    2.24       0.0  T
   2   -126.4549744 -0.967790E-08  0.275E-03    2.24       4.0  T
   3   -126.4549744  0.150315E-07  0.611E-04    2.24      18.2  T
   4   -126.4549744 -0.142487E-07  0.297E-04    2.24      37.4  T
     SCC iter.                  ...        0 min,  0.665 sec
     gradient                   ...        0 min,  0.119 sec
 * total energy  :  -124.2715022 Eh     change       -0.1023056E-05 Eh
   gradient norm :     0.0001256 Eh/α   predicted    -0.4071770E-06 ( -60.20%)
   displ. norm   :     0.0468387 α      lambda       -0.9436191E-06
   maximum displ.:     0.0293365 α      in ANC's #1, #2, #4, ...

........................................................................
.............................. CYCLE   60 ..............................
........................................................................

 iter      E             dE          RMSdq      gap      omega  full diag
   1   -126.4549682 -0.126455E+03  0.603E-03    2.24       0.0  T
   2   -126.4549682 -0.159438E-07  0.335E-03    2.24       3.3  T
   3   -126.4549682  0.180708E-07  0.742E-04    2.24      15.0  T
[...]
     3   6 C        3.095     0.053    26.699     8.469
     4   6 C        2.915    -0.048    29.184     8.859
     5   6 C        2.919    -0.033    28.819     8.803
     6   6 C        2.986     0.013    27.726     8.637
     7   6 C        2.919    -0.031    28.769     8.796
     8   6 C        2.915    -0.023    28.571     8.765
     9   6 C        2.917    -0.023    28.585     8.767
    10   6 C        2.917    -0.033    28.814     8.802
    11   6 C        2.988     0.012    27.738     8.639
    12   6 C        2.979    -0.007    28.199     8.711
    13   6 C        2.980    -0.010    28.265     8.721
    14   6 C        3.174     0.053    26.433     8.397
    15   6 C        2.915    -0.052    29.284     8.874
    16   6 C        2.920    -0.034    28.857     8.809
    17   6 C        2.987     0.011    27.754     8.642
    18   6 C        2.919    -0.031    28.773     8.796
    19   6 C        2.915    -0.023    28.572     8.765
    20   6 C        2.917    -0.023    28.577     8.766
    21   6 C        2.917    -0.032    28.789     8.799
    22   6 C        2.989     0.012    27.740     8.640
    23   7 N        2.683    -0.133    23.885     7.258
    24   6 C        3.858    -0.031    21.096     6.532
    25  15 P        4.735     0.302   147.508    21.817
    26  16 S        1.902    -0.052   143.222    20.143
    27  16 S        2.113    -0.049   143.088    20.133
    28   6 C        2.974     0.036    27.183     8.552
    29   6 C        2.952    -0.030    28.759     8.796
    30   6 C        2.922    -0.024    28.592     8.769
    31   6 C        2.919    -0.021    28.542     8.761
    32   6 C        2.922    -0.022    28.566     8.765
    33   6 C        2.961    -0.031    28.769     8.798
    34   7 N        2.691    -0.128    23.775     7.242
    35   6 C        3.063     0.058    26.642     8.464
    36   6 C        2.921    -0.041    29.028     8.835
    37   6 C        2.920    -0.023    28.569     8.765
    38   6 C        2.917    -0.023    28.575     8.766
    39   6 C        2.930    -0.028    28.710     8.787
    40   6 C        2.972     0.009    27.821     8.652
    41   6 C        2.900    -0.036    28.884     8.812
    42   6 C        2.900    -0.038    28.937     8.820
    43   6 C        2.971     0.007    27.854     8.657
    44   6 C        2.930    -0.030    28.755     8.794
    45   6 C        2.917    -0.025    28.631     8.774
    46   6 C        2.920    -0.024    28.605     8.771
    47   6 C        2.921    -0.044    29.099     8.846
    48   6 C        3.109     0.061    26.495     8.433
    49   1 H        0.925     0.078     2.004     2.214
    50   1 H        0.925     0.068     2.103     2.268
    51   1 H        0.924     0.058     2.225     2.333
    52   1 H        0.926     0.048     2.342     2.393
    53   1 H        0.926     0.054     2.266     2.354
    54   1 H        0.926     0.049     2.338     2.391
    55   1 H        0.926     0.050     2.314     2.379
    56   1 H        0.926     0.047     2.361     2.403
    57   1 H        0.926     0.037     2.486     2.466
    58   1 H        0.926     0.039     2.456     2.451
    59   1 H        0.926     0.051     2.313     2.378
    60   1 H        0.926     0.047     2.363     2.404
    61   1 H        0.926     0.051     2.305     2.374
    62   1 H        0.926     0.049     2.334     2.389
    63   1 H        0.926     0.039     2.457     2.451
    64   1 H        0.925     0.061     2.183     2.311
    65   1 H        0.925     0.072     2.060     2.245
    66   1 H        0.924     0.051     2.307     2.375
    67   1 H        0.926     0.054     2.265     2.354
    68   1 H        0.926     0.058     2.218     2.329
    69   1 H        0.926     0.058     2.221     2.330
    70   1 H        0.926     0.052     2.290     2.367
    71   1 H        0.926     0.049     2.337     2.391
    72   1 H        0.926     0.045     2.381     2.413
    73   1 H        0.926     0.059     2.208     2.324
    74   1 H        0.926     0.062     2.181     2.309
    75   1 H        0.926     0.058     2.227     2.334
    76   1 H        0.925     0.052     2.292     2.368
    77   1 H        0.925     0.048     2.345     2.395
    78   1 H        0.926     0.056     2.246     2.344
    79   1 H        0.926     0.058     2.222     2.331
    80   1 H        0.926     0.054     2.274     2.358
    81   1 H        0.926     0.045     2.378     2.411

 Mol. C6AA /au·bohr⁶  :     103867.267460
 Mol. C8AA /au·bohr⁸  :    2863819.767101
 Mol. α(0) /au        :        523.872151


Wiberg/Mayer (AO) data.
largest (>0.10) Wiberg bond orders for each atom

 ---------------------------------------------------------------------------
     #   Z sym  total        # sym  WBO       # sym  WBO       # sym  WBO
 ---------------------------------------------------------------------------
     1   6 C    3.958 --    49 H    0.976    51 H    0.973     2 N    0.969
                            50 H    0.961
     2   7 N    3.441 --    25 P    1.232     3 C    0.973     1 C    0.969
     3   6 C    3.945 --    12 C    1.458     4 C    1.284     2 N    0.973
     4   6 C    3.988 --     5 C    1.559     3 C    1.284    52 H    0.964
     5   6 C    3.984 --     4 C    1.559     6 C    1.270    53 H    0.966
                            12 C    0.105
     6   6 C    3.988 --     7 C    1.282     5 C    1.270    11 C    1.254
     7   6 C    3.988 --     8 C    1.553     6 C    1.282    54 H    0.967
                            10 C    0.117
     8   6 C    3.986 --     7 C    1.553     9 C    1.325    55 H    0.969
     9   6 C    3.990 --    10 C    1.551     8 C    1.325    56 H    0.970
    10   6 C    3.989 --     9 C    1.551    11 C    1.286    57 H    0.965
                             7 C    0.117
    11   6 C    3.987 --    10 C    1.286     6 C    1.254    12 C    1.230
    12   6 C    3.986 --     3 C    1.458    11 C    1.230    13 C    1.031
                             5 C    0.105
    13   6 C    3.985 --    14 C    1.452    22 C    1.234    12 C    1.031
                            16 C    0.105
    14   6 C    3.948 --    13 C    1.452    15 C    1.288    23 N    0.962
    15   6 C    3.986 --    16 C    1.555    14 C    1.288    58 H    0.963
    16   6 C    3.984 --    15 C    1.555    17 C    1.272    59 H    0.966
                            13 C    0.105
    17   6 C    3.988 --    18 C    1.282    16 C    1.272    22 C    1.254
    18   6 C    3.988 --    19 C    1.554    17 C    1.282    60 H    0.967
                            21 C    0.117
    19   6 C    3.986 --    18 C    1.554    20 C    1.324    61 H    0.969
    20   6 C    3.989 --    21 C    1.552    19 C    1.324    62 H    0.970
    21   6 C    3.989 --    20 C    1.552    22 C    1.285    63 H    0.966
                            18 C    0.117
    22   6 C    3.987 --    21 C    1.285    17 C    1.254    13 C    1.234
    23   7 N    3.385 --    25 P    1.195    24 C    0.971    14 C    0.962
    24   6 C    3.961 --    65 H    0.978    23 N    0.971    66 H    0.971
                            64 H    0.966
    25  15 P    5.146 --     2 N    1.232    34 N    1.230    23 N    1.195
                            26 S    1.034
    26  16 S    2.475 --    27 S    1.139    25 P    1.034
    27  16 S    2.309 --    26 S    1.139    28 C    0.975
    28   6 C    3.954 --    33 C    1.408    29 C    1.405    27 S    0.975
                            31 C    0.103
    29   6 C    3.989 --    30 C    1.443    28 C    1.405    67 H    0.967
                            32 C    0.110
    30   6 C    3.990 --    29 C    1.443    31 C    1.433    68 H    0.967
                            33 C    0.109
    31   6 C    3.981 --    32 C    1.439    30 C    1.433    69 H    0.969
                            28 C    0.103
    32   6 C    3.991 --    31 C    1.439    33 C    1.438    70 H    0.968
                            29 C    0.110
    33   6 C    3.990 --    32 C    1.438    28 C    1.408    71 H    0.964
                            30 C    0.109
    34   7 N    3.427 --    25 P    1.230    48 C    0.955    35 C    0.951
    35   6 C    3.949 --    36 C    1.408    40 C    1.338    34 N    0.951
    36   6 C    3.988 --    37 C    1.435    35 C    1.408    72 H    0.958
                            39 C    0.103
    37   6 C    3.983 --    36 C    1.435    38 C    1.423    73 H    0.968
    38   6 C    3.986 --    39 C    1.461    37 C    1.423    74 H    0.967
    39   6 C    3.981 --    38 C    1.461    40 C    1.364    75 H    0.967
                            36 C    0.103
    40   6 C    3.987 --    39 C    1.364    35 C    1.338    41 C    1.101
    41   6 C    3.989 --    42 C    1.772    40 C    1.101    76 H    0.961
    42   6 C    3.989 --    41 C    1.772    43 C    1.101    77 H    0.960
    43   6 C    3.987 --    44 C    1.364    48 C    1.335    42 C    1.101
    44   6 C    3.981 --    45 C    1.462    43 C    1.364    78 H    0.967
                            47 C    0.103
    45   6 C    3.987 --    44 C    1.462    46 C    1.422    79 H    0.968
    46   6 C    3.983 --    47 C    1.436    45 C    1.422    80 H    0.969
    47   6 C    3.988 --    46 C    1.436    48 C    1.407    81 H    0.959
                            44 C    0.103
    48   6 C    3.949 --    47 C    1.407    43 C    1.335    34 N    0.955
    49   1 H    0.994 --     1 C    0.976
    50   1 H    0.994 --     1 C    0.961
    51   1 H    0.996 --     1 C    0.973
    52   1 H    0.997 --     4 C    0.964
    53   1 H    0.996 --     5 C    0.966
    54   1 H    0.997 --     7 C    0.967
    55   1 H    0.997 --     8 C    0.969
    56   1 H    0.997 --     9 C    0.970
    57   1 H    0.998 --    10 C    0.965
    58   1 H    0.997 --    15 C    0.963
    59   1 H    0.996 --    16 C    0.966
    60   1 H    0.997 --    18 C    0.967
    61   1 H    0.997 --    19 C    0.969
    62   1 H    0.997 --    20 C    0.970
    63   1 H    0.998 --    21 C    0.966
    64   1 H    0.995 --    24 C    0.966
    65   1 H    0.994 --    24 C    0.978
    66   1 H    0.997 --    24 C    0.971
    67   1 H    0.997 --    29 C    0.967
    68   1 H    0.996 --    30 C    0.967
    69   1 H    0.996 --    31 C    0.969
    70   1 H    0.997 --    32 C    0.968
    71   1 H    0.998 --    33 C    0.964
    72   1 H    0.997 --    36 C    0.958
    73   1 H    0.995 --    37 C    0.968
    74   1 H    0.995 --    38 C    0.967
    75   1 H    0.996 --    39 C    0.967
    76   1 H    0.996 --    41 C    0.961
    77   1 H    0.997 --    42 C    0.960
    78   1 H    0.996 --    44 C    0.967
    79   1 H    0.996 --    45 C    0.968
    80   1 H    0.996 --    46 C    0.969
    81   1 H    0.997 --    47 C    0.959
 ---------------------------------------------------------------------------

Topologies differ in total number of bonds
Writing topology from bond orders to xtbtopo.mol

molecular dipole:
                 x           y           z       tot (Debye)
 q only:       -0.718       0.311      -0.149
   full:       -0.897       0.311       0.014       2.414
molecular quadrupole (traceless):
                xx          xy          yy          xz          yz          zz
 q only:        9.608     -11.111       2.572       4.119       3.987     -12.181
  q+dip:       14.117     -10.714      -6.063       0.681       1.039      -8.054
   full:        9.832     -10.093       1.717       1.486       4.152     -11.549

           -------------------------------------------------
          |                Geometry Summary                 |
           -------------------------------------------------

      molecular mass/u    :      674.8363990
   center of mass at/Å    :       -0.1371190       0.0343135      -0.2372159
  moments of inertia/u·Å² :        0.5793607E+04   0.7367433E+04   0.1031758E+05
rotational constants/cm⁻¹ :        0.2909696E-02   0.2288128E-02   0.1633875E-02

 * 85 selected distances

     #   Z          #   Z                                           value/Å
     1   6 C        2   7 N                                       1.4587074
     2   7 N        3   6 C                                       1.4292286
     3   6 C        4   6 C                                       1.4074241
     4   6 C        5   6 C                                       1.3641209
     5   6 C        6   6 C                                       1.4111947
     6   6 C        7   6 C                                       1.4099809
     7   6 C        8   6 C                                       1.3667445
     8   6 C        9   6 C                                       1.4027457
     9   6 C       10   6 C                                       1.3677222
     6   6 C       11   6 C                                       1.4202863
    10   6 C       11   6 C                                       1.4110284
     3   6 C       12   6 C                                       1.3759877
    11   6 C       12   6 C                                       1.4249362
    13   6 C       14   6 C                                       1.3768228
    14   6 C       15   6 C                                       1.4053387
    15   6 C       16   6 C                                       1.3641706
    16   6 C       17   6 C                                       1.4096800
    17   6 C       18   6 C                                       1.4097689
    18   6 C       19   6 C                                       1.3667641
    19   6 C       20   6 C                                       1.4029217
    20   6 C       21   6 C                                       1.3675156
    13   6 C       22   6 C                                       1.4231022
    17   6 C       22   6 C                                       1.4191748
    21   6 C       22   6 C                                       1.4110438
    14   6 C       23   7 N                                       1.4350851
    23   7 N       24   6 C                                       1.4596728
     2   7 N       25  15 P                                       1.6556863
    23   7 N       25  15 P                                       1.6648270
    25  15 P       26  16 S                                       2.1073088 (max)
    26  16 S       27  16 S                                       2.0583232
    28   6 C       29   6 C                                       1.3863033
    29   6 C       30   6 C                                       1.3837153
    30   6 C       31   6 C                                       1.3865479
    31   6 C       32   6 C                                       1.3855688
    28   6 C       33   6 C                                       1.3852821
    32   6 C       33   6 C                                       1.3841303
    25  15 P       34   7 N                                       1.6474954
    34   7 N       35   6 C                                       1.4341186
    35   6 C       36   6 C                                       1.3861975
    36   6 C       37   6 C                                       1.3834372
    37   6 C       38   6 C                                       1.3852797
    38   6 C       39   6 C                                       1.3797248
    35   6 C       40   6 C                                       1.3976717
    39   6 C       40   6 C                                       1.3970758
    41   6 C       42   6 C                                       1.3399076
    43   6 C       44   6 C                                       1.3974662
    44   6 C       45   6 C                                       1.3795082
    45   6 C       46   6 C                                       1.3852754
    46   6 C       47   6 C                                       1.3832143
    34   7 N       48   6 C                                       1.4323707
    43   6 C       48   6 C                                       1.3989926
    47   6 C       48   6 C                                       1.3864136
     1   6 C       49   1 H                                       1.0893324
     1   6 C       50   1 H                                       1.0897425
     1   6 C       51   1 H                                       1.0934482
     4   6 C       52   1 H                                       1.0777963
     5   6 C       53   1 H                                       1.0790731
     7   6 C       54   1 H                                       1.0797186
     8   6 C       55   1 H                                       1.0790059
     9   6 C       56   1 H                                       1.0793258
    10   6 C       57   1 H                                       1.0790392
    15   6 C       58   1 H                                       1.0773469 (min)
    16   6 C       59   1 H                                       1.0791583
    18   6 C       60   1 H                                       1.0798033
    19   6 C       61   1 H                                       1.0790679
    20   6 C       62   1 H                                       1.0792488
    21   6 C       63   1 H                                       1.0792928
    24   6 C       64   1 H                                       1.0894777
    24   6 C       65   1 H                                       1.0887799
    24   6 C       66   1 H                                       1.0939066
    29   6 C       67   1 H                                       1.0799838
    30   6 C       68   1 H                                       1.0788882
    31   6 C       69   1 H                                       1.0789534
    32   6 C       70   1 H                                       1.0791226
    33   6 C       71   1 H                                       1.0778864
    36   6 C       72   1 H                                       1.0785241
    37   6 C       73   1 H                                       1.0783209
    38   6 C       74   1 H                                       1.0784876
    39   6 C       75   1 H                                       1.0794752
    41   6 C       76   1 H                                       1.0821587
    42   6 C       77   1 H                                       1.0832114
    44   6 C       78   1 H                                       1.0797787
    45   6 C       79   1 H                                       1.0785512
    46   6 C       80   1 H                                       1.0783809
    47   6 C       81   1 H                                       1.0784148

 * 6 distinct bonds (by element types)

   Z      Z             #   av. dist./Å        max./Å        min./Å
   1 H    6 C          33     1.0812940     1.0939066     1.0773469
   6 C    6 C          41     1.3909802     1.4249362     1.3399076
   6 C    7 N           6     1.4415305     1.4596728     1.4292286
   7 N   15 P           3     1.6560029     1.6648270     1.6474954
  15 P   16 S           1     2.1073088     2.1073088     2.1073088
  16 S   16 S           1     2.0583232     2.0583232     2.0583232


optimized geometry written to: xtbopt.xyz


           -------------------------------------------------
          | TOTAL ENERGY             -124.271512791933 Eh   |
          | GRADIENT NORM               0.000046431904 Eh/α |
          | HOMO-LUMO GAP               2.238614263669 eV   |
           -------------------------------------------------

------------------------------------------------------------------------
 * finished run on 2024/12/16 at 17:39:34.727     
------------------------------------------------------------------------
 total:
 * wall-time:     0 d,  0 h,  1 min, 34.761 sec
 *  cpu-time:     0 d,  0 h, 12 min, 25.404 sec
 * ratio c/w:     7.866 speedup
 SCF:
 * wall-time:     0 d,  0 h,  0 min,  2.852 sec
 *  cpu-time:     0 d,  0 h,  0 min, 22.602 sec
 * ratio c/w:     7.924 speedup
 ANC optimizer:
 * wall-time:     0 d,  0 h,  1 min, 31.742 sec
 *  cpu-time:     0 d,  0 h, 12 min,  1.540 sec
 * ratio c/w:     7.865 speedup

