      -----------------------------------------------------------      
     |                   =====================                   |     
     |                           x T B                           |     
     |                   =====================                   |     
     |                         S. Grimme                         |     
     |          Mulliken Center for Theoretical Chemistry        |     
     |                    University of Bonn                     |     
      -----------------------------------------------------------      

   * xtb version 6.7.1 (edcfbbe) compiled by 'conda@3ef47c1a292c' on 2024-11-25

   xtb is free software: you can redistribute it and/or modify it under
   the terms of the GNU Lesser General Public License as published by
   the Free Software Foundation, either version 3 of the License, or
   (at your option) any later version.
   
   xtb is distributed in the hope that it will be useful,
   but WITHOUT ANY WARRANTY; without even the implied warranty of
   MERCHANTABILITY or FITNESS FOR A PARTICULAR PURPOSE.  See the
   GNU Lesser General Public License for more details.
   
   Cite this work as:
   * C. Bannwarth, E. Caldeweyher, S. Ehlert, A. Hansen, P. Pracht,
     J. Seibert, S. Spicher, S. Grimme, WIREs Comput. Mol. Sci., 2020, 11,
     e01493. DOI: 10.1002/wcms.1493
   
   for GFN2-xTB:
   * C. Bannwarth, S. Ehlert and S. Grimme., J. Chem. Theory Comput., 2019,
     15, 1652-1671. DOI: 10.1021/acs.jctc.8b01176
   for GFN1-xTB:
   * S. Grimme, C. Bannwarth, P. Shushkov, J. Chem. Theory Comput., 2017,
     13, 1989-2009. DOI: 10.1021/acs.jctc.7b00118
   for GFN0-xTB:
   * P. Pracht, E. Caldeweyher, S. Ehlert, S. Grimme, ChemRxiv, 2019, preprint.
     DOI: 10.26434/chemrxiv.8326202.v1
   for GFN-FF:
   * S. Spicher and S. Grimme, Angew. Chem. Int. Ed., 2020, 59, 15665-15673.
     DOI: 10.1002/anie.202004239
   
   for ALPB and GBSA implicit solvation:
   * S. Ehlert, M. Stahn, S. Spicher, S. Grimme, J. Chem. Theory Comput.,
     2021, 17, 4250-4261. DOI: 10.1021/acs.jctc.1c00471
   
   for ddCOSMO and CPCM-X implicit solvation:
   * M. Stahn, S. Ehlert, S. Grimme, J. Phys. Chem. A,
     2023, XX, XXXX-XXXX. DOI: 10.1021/acs.jpca.3c04382
   
   for DFT-D4:
   * E. Caldeweyher, C. Bannwarth and S. Grimme, J. Chem. Phys., 2017,
     147, 034112. DOI: 10.1063/1.4993215
   * E. Caldeweyher, S. Ehlert, A. Hansen, H. Neugebauer, S. Spicher,
     C. Bannwarth and S. Grimme, J. Chem. Phys., 2019, 150, 154122.
     DOI: 10.1063/1.5090222
   * E. Caldeweyher, J.-M. Mewes, S. Ehlert and S. Grimme, Phys. Chem. Chem. Phys.
     2020, 22, 8499-8512. DOI: 10.1039/D0CP00502A
   
   for sTDA-xTB:
   * S. Grimme and C. Bannwarth, J. Chem. Phys., 2016, 145, 054103.
     DOI: 10.1063/1.4959605
   
   in the mass-spec context:
   * V. Asgeirsson, C. Bauer and S. Grimme, Chem. Sci., 2017, 8, 4879.
     DOI: 10.1039/c7sc00601b
   * J. Koopman and S. Grimme, ACS Omega 2019, 4, 12, 15120-15133.
     DOI: 10.1021/acsomega.9b02011
   
   for metadynamics refer to:
   * S. Grimme, J. Chem. Theory Comput., 2019, 155, 2847-2862
     DOI: 10.1021/acs.jctc.9b00143
   
   for SPH calculations refer to:
   * S. Spicher and S. Grimme, J. Chem. Theory Comput., 2021, 17, 1701-1714
     DOI: 10.1021/acs.jctc.0c01306
   
   for ONIOM refer to:
   * C. Plett, A. Katbashev, S. Ehlert, S. Grimme, M. Bursch,
     Phys. Chem. Chem. Phys., 2023, 25, 17860-17868. DOI: 10.1039/D3CP02178E
   
   for DIPRO refer to:
   * J. Kohn, N. Gildemeister, S. Grimme, D. Fazzi, A. Hansen,
     J. Chem. Phys., 2023, just accepted.
   
   for PTB refer to:
   * S. Grimme, M. Mueller, A. Hansen, J. Chem. Phys., 2023, 158, 124111.
     DOI: 10.1063/5.0137838
   
   with help from (in alphabetical order)
   P. Atkinson, C. Bannwarth, F. Bohle, G. Brandenburg, E. Caldeweyher
   M. Checinski, S. Dohm, S. Ehlert, S. Ehrlich, I. Gerasimov, C. Hölzer
   A. Katbashev, J. Kohn, J. Koopman, C. Lavigne, S. Lehtola, F. März, M. Müller,
   F. Musil, H. Neugebauer, J. Pisarek, C. Plett, P. Pracht, F. Pultar,
   J. Seibert, P. Shushkov, S. Spicher, M. Stahn, M. Steiner, T. Strunk,
   J. Stückrath, T. Rose, and J. Unsleber
   
 * started run on 2024/12/16 at 16:29:30.164     
   ID    Z sym.   atoms
    1    6 C      1-3, 5-12, 19-25, 30-50, 52
    2    7 N      4, 29, 51
    3    9 F      13-15, 26-28
    4   15 P      16
    5   16 S      17, 18
    6    1 H      53-87

           -------------------------------------------------
          |                Calculation Setup                |
           -------------------------------------------------

          program call               : xtb --gfn2 --opt extreme -P 8 --charge 1 molecule.xyz
          hostname                   : node20
          coordinate file            : molecule.xyz
          omp threads                :                     8


           -------------------------------------------------
          |                 G F N 2 - x T B                 |
           -------------------------------------------------

        Reference                      10.1021/acs.jctc.8b01176
      * Hamiltonian:
        H0-scaling (s, p, d)           1.850000    2.230000    2.230000
        zeta-weighting                 0.500000
      * Dispersion:
        s8                             2.700000
        a1                             0.520000
        a2                             5.000000
        s9                             5.000000
      * Repulsion:
        kExp                           1.500000    1.000000
        rExp                           1.000000
      * Coulomb:
        alpha                          2.000000
        third order                    shell-resolved
        anisotropic                    true
        a3                             3.000000
        a5                             4.000000
        cn-shift                       1.200000
        cn-exp                         4.000000
        max-rad                        5.000000


          ...................................................
          :                      SETUP                      :
          :.................................................:
          :  # basis functions                 261          :
          :  # atomic orbitals                 258          :
          :  # shells                          142          :
          :  # electrons                       268          :
          :  max. iterations                   250          :
          :  Hamiltonian                  GFN2-xTB          :
          :  restarted?                      false          :
          :  GBSA solvation                  false          :
          :  PC potential                    false          :
          :  electronic temp.          300.0000000     K    :
          :  accuracy                    1.0000000          :
          :  -> integral cutoff          0.2500000E+02      :
          :  -> integral neglect         0.1000000E-07      :
          :  -> SCF convergence          0.1000000E-05 Eh   :
          :  -> wf. convergence          0.1000000E-03 e    :
          :  Broyden damping             0.4000000          :
          :  net charge                          1          :
          :  unpaired electrons                  0          :
          ...................................................

 iter      E             dE          RMSdq      gap      omega  full diag
   1   -151.0082365 -0.151008E+03  0.456E+00    1.65       0.0  T
   2   -151.2729441 -0.264708E+00  0.275E+00    1.92       1.0  T
   3   -151.2579373  0.150068E-01  0.135E+00    1.69       1.0  T
   4   -151.2758371 -0.178998E-01  0.670E-01    1.33       1.0  T
   5   -151.3087790 -0.329418E-01  0.264E-01    1.44       1.0  T
   6   -151.3111082 -0.232926E-02  0.140E-01    1.42       1.0  T
   7   -151.3128811 -0.177292E-02  0.434E-02    1.44       1.0  T
   8   -151.3129274 -0.462922E-04  0.201E-02    1.44       1.0  T
   9   -151.3129335 -0.607505E-05  0.905E-03    1.44       1.2  T
  10   -151.3129348 -0.129651E-05  0.477E-03    1.44       2.2  T
  11   -151.3129354 -0.570629E-06  0.210E-03    1.44       5.1  T
  12   -151.3129355 -0.171689E-06  0.105E-03    1.44      10.2  T
  13   -151.3129356 -0.233383E-07  0.549E-04    1.44      19.5  T
  14   -151.3129356 -0.600605E-08  0.227E-04    1.44      47.3  T

   *** convergence criteria satisfied after 14 iterations ***

         #    Occupation            Energy/Eh            Energy/eV
      -------------------------------------------------------------
         1        2.0000           -0.9837490             -26.7692
       ...           ...                  ...                  ...
       128        2.0000           -0.5064531             -13.7813
       129        2.0000           -0.5047096             -13.7338
       130        2.0000           -0.5009748             -13.6322
       131        2.0000           -0.4921519             -13.3921
       132        2.0000           -0.4908025             -13.3554
       133        2.0000           -0.4734064             -12.8820
       134        2.0000           -0.4597388             -12.5101 (HOMO)
       135                         -0.4068410             -11.0707 (LUMO)
       136                         -0.3767866             -10.2529
       137                         -0.3703997             -10.0791
       138                         -0.3629434              -9.8762
       139                         -0.3568551              -9.7105
       ...                                ...                  ...
       258                          1.0485889              28.5336
      -------------------------------------------------------------
                  HL-Gap            0.0528978 Eh            1.4394 eV
             Fermi-level           -0.4332899 Eh          -11.7904 eV

 SCC (total)                   0 d,  0 h,  0 min,  2.567 sec
 SCC setup                      ...        0 min,  0.000 sec (  0.014%)
 Dispersion                     ...        0 min,  0.001 sec (  0.058%)
 classical contributions        ...        0 min,  0.000 sec (  0.006%)
 integral evaluation            ...        0 min,  0.009 sec (  0.341%)
 iterations                     ...        0 min,  2.431 sec ( 94.719%)
 molecular gradient             ...        0 min,  0.116 sec (  4.538%)
 printout                       ...        0 min,  0.008 sec (  0.323%)

         :::::::::::::::::::::::::::::::::::::::::::::::::::::
         ::                     SUMMARY                     ::
         :::::::::::::::::::::::::::::::::::::::::::::::::::::
         :: total energy            -149.392718752984 Eh    ::
         :: gradient norm              0.146308128694 Eh/a0 ::
         :: HOMO-LUMO gap              1.439421798614 eV    ::
         ::.................................................::
         :: SCC energy              -151.305323007073 Eh    ::
         :: -> isotropic ES            0.164776460667 Eh    ::
         :: -> anisotropic ES          0.001713098130 Eh    ::
         :: -> anisotropic XC          0.038598326836 Eh    ::
         :: -> dispersion             -0.141999593967 Eh    ::
         :: repulsion energy           1.912604254089 Eh    ::
         :: add. restraining           0.000000000000 Eh    ::
         :: total charge               1.000000000000 e     ::
         :::::::::::::::::::::::::::::::::::::::::::::::::::::

      ----------------------------------------------------------- 
     |                   =====================                   |
     |                        A N C O P T                        |
     |                   =====================                   |
     |               Approximate Normal Coordinate               |
     |                Rational Function Optimizer                |
      ----------------------------------------------------------- 
      ----------------------------------------------------------- 
     |                   =====================                   |
     |                        A N C O P T                        |
     |                   =====================                   |
     |               Approximate Normal Coordinate               |
     |                Rational Function Optimizer                |
      ----------------------------------------------------------- 

          ...................................................
          :                      SETUP                      :
          :.................................................:
          :   optimization level           extreme          :
          :   max. optcycles                  1740          :
          :   ANC micro-cycles                  20          :
          :   degrees of freedom               255          :
          :.................................................:
          :   RF solver                   davidson          :
          :   write xtbopt.log                true          :
          :   linear?                        false          :
          :   energy convergence         0.5000000E-07 Eh   :
          :   grad. convergence          0.5000000E-04 Eh/α :
          :   maxmium RF displ.          1.0000000          :
          :   Hlow (freq-cutoff)         0.1000000E-01      :
          :   Hmax (freq-cutoff)         5.0000000          :
          :   S6 in model hess.         20.0000000          :
          ...................................................

generating ANC from exact Hessian ...
Using Lindh-Hessian (1995)
 Shifting diagonal of input Hessian by    9.9079549121277206E-003
 Lowest  eigenvalues of input Hessian
    0.000000    0.000000    0.000000    0.000000    0.000000    0.000000
    0.010000    0.010077    0.010124    0.010134    0.010212    0.010365
    0.010459    0.010577    0.010873    0.011088    0.011251    0.011497
 Highest eigenvalues
    1.935631    1.958711    1.994305    2.029549    2.068727    2.075400


........................................................................
.............................. CYCLE    1 ..............................
........................................................................

 iter      E             dE          RMSdq      gap      omega  full diag
   1   -151.3129356 -0.151313E+03  0.139E-04    1.44       0.0  T
   2   -151.3129356 -0.165016E-09  0.103E-04    1.44     104.0  T
   3   -151.3129356 -0.100982E-09  0.783E-05    1.44     136.9  T
     SCC iter.                  ...        0 min,  0.434 sec
     gradient                   ...        0 min,  0.145 sec
 * total energy  :  -149.3927188 Eh     change       -0.1325674E-08 Eh
   gradient norm :     0.1463092 Eh/α   predicted     0.0000000E+00 (-100.00%)
   displ. norm   :     0.4129829 α      lambda       -0.3243999E-01
   maximum displ.:     0.1331143 α      in ANC's #57, #71, #20, ...

........................................................................
.............................. CYCLE    2 ..............................
........................................................................

 iter      E             dE          RMSdq      gap      omega  full diag
   1   -151.4002972 -0.151400E+03  0.252E-01    1.59       0.0  T
   2   -151.4004697 -0.172494E-03  0.136E-01    1.66       1.0  T
   3   -151.4003574  0.112217E-03  0.496E-02    1.70       1.0  T
   4   -151.4004852 -0.127774E-03  0.237E-02    1.71       1.0  T
   5   -151.4005093 -0.240543E-04  0.116E-02    1.70       1.0  T
   6   -151.4005175 -0.826771E-05  0.423E-03    1.70       2.5  T
   7   -151.4005185 -0.931370E-06  0.214E-03    1.70       5.0  T
   8   -151.4005186 -0.100057E-06  0.101E-03    1.70      10.6  T
   9   -151.4005186 -0.202382E-07  0.527E-04    1.70      20.3  T
  10   -151.4005186 -0.209724E-08  0.255E-04    1.70      42.1  T
     SCC iter.                  ...        0 min,  1.656 sec
     gradient                   ...        0 min,  0.118 sec
 * total energy  :  -149.4157852 Eh     change       -0.2306647E-01 Eh
   gradient norm :     0.0649933 Eh/α   predicted    -0.1901753E-01 ( -17.55%)
   displ. norm   :     0.4199033 α      lambda       -0.1239541E-01
   maximum displ.:     0.1253642 α      in ANC's #20, #18, #57, ...

........................................................................
.............................. CYCLE    3 ..............................
........................................................................

 iter      E             dE          RMSdq      gap      omega  full diag
   1   -151.4547234 -0.151455E+03  0.179E-01    1.87       0.0  T
   2   -151.4547959 -0.725637E-04  0.982E-02    1.90       1.0  T
   3   -151.4547558  0.401414E-04  0.287E-02    1.92       1.0  T
   4   -151.4548007 -0.449384E-04  0.143E-02    1.92       1.0  T
   5   -151.4548110 -0.103028E-04  0.615E-03    1.92       1.7  T
   6   -151.4548131 -0.210400E-05  0.226E-03    1.92       4.7  T
   7   -151.4548134 -0.279785E-06  0.996E-04    1.92      10.8  T
   8   -151.4548134 -0.175248E-07  0.373E-04    1.92      28.7  T
     SCC iter.                  ...        0 min,  1.230 sec
     gradient                   ...        0 min,  0.118 sec
 * total energy  :  -149.4233084 Eh     change       -0.7523178E-02 Eh
   gradient norm :     0.0141158 Eh/α   predicted    -0.7290485E-02 (  -3.09%)
   displ. norm   :     0.3969786 α      lambda       -0.2770449E-02
   maximum displ.:     0.1532671 α      in ANC's #18, #9, #20, ...

........................................................................
.............................. CYCLE    4 ..............................
........................................................................

 iter      E             dE          RMSdq      gap      omega  full diag
   1   -151.4601639 -0.151460E+03  0.107E-01    1.98       0.0  T
   2   -151.4601880 -0.241698E-04  0.560E-02    2.00       1.0  T
   3   -151.4601823  0.572669E-05  0.160E-02    2.00       1.0  T
   4   -151.4601864 -0.409796E-05  0.970E-03    2.01       1.1  T
   5   -151.4601919 -0.548809E-05  0.386E-03    2.00       2.8  T
   6   -151.4601922 -0.345121E-06  0.234E-03    2.00       4.6  T
   7   -151.4601925 -0.234466E-06  0.118E-03    2.00       9.1  T
   8   -151.4601925 -0.188620E-07  0.676E-04    2.00      15.9  T
   9   -151.4601925 -0.712760E-08  0.300E-04    2.00      35.7  T
     SCC iter.                  ...        0 min,  1.324 sec
     gradient                   ...        0 min,  0.143 sec
 * total energy  :  -149.4253462 Eh     change       -0.2037757E-02 Eh
   gradient norm :     0.0117059 Eh/α   predicted    -0.1603589E-02 ( -21.31%)
   displ. norm   :     0.5250102 α      lambda       -0.2254395E-02
   maximum displ.:     0.2243324 α      in ANC's #9, #18, #19, ...

........................................................................
.............................. CYCLE    5 ..............................
........................................................................

 iter      E             dE          RMSdq      gap      omega  full diag
   1   -151.4626767 -0.151463E+03  0.873E-02    2.03       0.0  T
   2   -151.4626909 -0.141995E-04  0.496E-02    2.03       1.0  T
   3   -151.4626829  0.802231E-05  0.173E-02    2.03       1.0  T
   4   -151.4626937 -0.108761E-04  0.540E-03    2.03       2.0  T
   5   -151.4626945 -0.720767E-06  0.320E-03    2.03       3.4  T
   6   -151.4626949 -0.419027E-06  0.121E-03    2.03       8.9  T
   7   -151.4626949 -0.292216E-07  0.657E-04    2.03      16.3  T
   8   -151.4626949 -0.147944E-07  0.299E-04    2.03      35.9  T
     SCC iter.                  ...        0 min,  1.298 sec
     gradient                   ...        0 min,  0.118 sec
 * total energy  :  -149.4269322 Eh     change       -0.1585997E-02 Eh
   gradient norm :     0.0102622 Eh/α   predicted    -0.1437894E-02 (  -9.34%)
   displ. norm   :     0.4808789 α      lambda       -0.1295065E-02
   maximum displ.:     0.2199262 α      in ANC's #9, #20, #10, ...

........................................................................
.............................. CYCLE    6 ..............................
........................................................................

 iter      E             dE          RMSdq      gap      omega  full diag
   1   -151.4625945 -0.151463E+03  0.965E-02    2.03       0.0  T
   2   -151.4626101 -0.156222E-04  0.476E-02    2.03       1.0  T
   3   -151.4626088  0.125054E-05  0.133E-02    2.03       1.0  T
   4   -151.4626104 -0.150329E-05  0.746E-03    2.03       1.4  T
   5   -151.4626120 -0.169683E-05  0.315E-03    2.03       3.4  T
   6   -151.4626126 -0.585500E-06  0.149E-03    2.03       7.2  T
   7   -151.4626127 -0.114832E-06  0.722E-04    2.03      14.8  T
   8   -151.4626128 -0.653566E-08  0.430E-04    2.03      24.9  T
     SCC iter.                  ...        0 min,  0.977 sec
     gradient                   ...        0 min,  0.117 sec
 * total energy  :  -149.4278485 Eh     change       -0.9163157E-03 Eh
   gradient norm :     0.0067618 Eh/α   predicted    -0.7972821E-03 ( -12.99%)
   displ. norm   :     0.4268690 α      lambda       -0.7843751E-03
   maximum displ.:     0.1821271 α      in ANC's #9, #10, #6, ...

........................................................................
.............................. CYCLE    7 ..............................
........................................................................

 iter      E             dE          RMSdq      gap      omega  full diag
   1   -151.4648681 -0.151465E+03  0.762E-02    2.03       0.0  T
   2   -151.4648734 -0.533475E-05  0.412E-02    2.02       1.0  T
   3   -151.4648685  0.492575E-05  0.118E-02    2.02       1.0  T
   4   -151.4648734 -0.487955E-05  0.528E-03    2.02       2.0  T
   5   -151.4648744 -0.988555E-06  0.294E-03    2.02       3.6  T
   6   -151.4648752 -0.781981E-06  0.788E-04    2.02      13.6  T
   7   -151.4648752 -0.168181E-07  0.420E-04    2.02      25.5  T
     SCC iter.                  ...        0 min,  1.164 sec
     gradient                   ...        0 min,  0.129 sec
 * total energy  :  -149.4284291 Eh     change       -0.5806141E-03 Eh
   gradient norm :     0.0062036 Eh/α   predicted    -0.4636573E-03 ( -20.14%)
   displ. norm   :     0.4080648 α      lambda       -0.5782705E-03
   maximum displ.:     0.1586666 α      in ANC's #10, #6, #9, ...

........................................................................
.............................. CYCLE    8 ..............................
........................................................................

 iter      E             dE          RMSdq      gap      omega  full diag
   1   -151.4668041 -0.151467E+03  0.813E-02    2.02       0.0  T
   2   -151.4668083 -0.418657E-05  0.441E-02    2.02       1.0  T
   3   -151.4668029  0.537105E-05  0.114E-02    2.02       1.0  T
   4   -151.4668072 -0.433310E-05  0.605E-03    2.02       1.8  T
   5   -151.4668095 -0.232135E-05  0.210E-03    2.02       5.1  T
   6   -151.4668099 -0.354737E-06  0.730E-04    2.02      14.7  T
   7   -151.4668099 -0.332703E-07  0.307E-04    2.02      35.0  T
     SCC iter.                  ...        0 min,  1.238 sec
     gradient                   ...        0 min,  0.116 sec
 * total energy  :  -149.4288666 Eh     change       -0.4375602E-03 Eh
   gradient norm :     0.0060296 Eh/α   predicted    -0.3372843E-03 ( -22.92%)
   displ. norm   :     0.3986427 α      lambda       -0.4625813E-03
   maximum displ.:     0.1552182 α      in ANC's #6, #5, #10, ...

........................................................................
.............................. CYCLE    9 ..............................
........................................................................

 iter      E             dE          RMSdq      gap      omega  full diag
   1   -151.4677460 -0.151468E+03  0.813E-02    2.02       0.0  T
   2   -151.4677488 -0.283722E-05  0.461E-02    2.02       1.0  T
   3   -151.4677430  0.579567E-05  0.998E-03    2.02       1.1  T
   4   -151.4677490 -0.599047E-05  0.447E-03    2.02       2.4  T
   5   -151.4677501 -0.105656E-05  0.155E-03    2.02       6.9  T
   6   -151.4677503 -0.189407E-06  0.683E-04    2.02      15.7  T
   7   -151.4677503 -0.299157E-07  0.301E-04    2.02      35.6  T
     SCC iter.                  ...        0 min,  0.951 sec
     gradient                   ...        0 min,  0.136 sec
 * total energy  :  -149.4292195 Eh     change       -0.3528784E-03 Eh
   gradient norm :     0.0050697 Eh/α   predicted    -0.2680529E-03 ( -24.04%)
   displ. norm   :     0.3915709 α      lambda       -0.3786071E-03
   maximum displ.:     0.1687131 α      in ANC's #5, #6, #10, ...

........................................................................
.............................. CYCLE   10 ..............................
........................................................................

 iter      E             dE          RMSdq      gap      omega  full diag
   1   -151.4681407 -0.151468E+03  0.784E-02    2.02       0.0  T
   2   -151.4681431 -0.231404E-05  0.458E-02    2.02       1.0  T
   3   -151.4681390  0.404731E-05  0.805E-03    2.03       1.3  T
   4   -151.4681439 -0.489876E-05  0.261E-03    2.02       4.1  T
   5   -151.4681441 -0.235667E-06  0.122E-03    2.02       8.8  T
   6   -151.4681442 -0.536713E-07  0.683E-04    2.02      15.7  T
   7   -151.4681442 -0.283274E-07  0.349E-04    2.02      30.7  T
     SCC iter.                  ...        0 min,  1.098 sec
     gradient                   ...        0 min,  0.117 sec
 * total energy  :  -149.4295107 Eh     change       -0.2911765E-03 Eh
   gradient norm :     0.0044397 Eh/α   predicted    -0.2183301E-03 ( -25.02%)
   displ. norm   :     0.3916139 α      lambda       -0.3277152E-03
   maximum displ.:     0.1811740 α      in ANC's #5, #6, #10, ...

........................................................................
.............................. CYCLE   11 ..............................
........................................................................

 iter      E             dE          RMSdq      gap      omega  full diag
   1   -151.4678029 -0.151468E+03  0.779E-02    2.03       0.0  T
   2   -151.4678050 -0.214169E-05  0.452E-02    2.03       1.0  T
   3   -151.4678034  0.165796E-05  0.638E-03    2.03       1.7  T
   4   -151.4678058 -0.244067E-05  0.246E-03    2.03       4.4  T
   5   -151.4678060 -0.206084E-06  0.803E-04    2.03      13.4  T
   6   -151.4678060 -0.246603E-07  0.409E-04    2.03      26.2  T
     SCC iter.                  ...        0 min,  0.711 sec
     gradient                   ...        0 min,  0.116 sec
 * total energy  :  -149.4297662 Eh     change       -0.2554647E-03 Eh
   gradient norm :     0.0046208 Eh/α   predicted    -0.1889879E-03 ( -26.02%)
   displ. norm   :     0.4028597 α      lambda       -0.2998406E-03
   maximum displ.:     0.1940991 α      in ANC's #5, #6, #8, ...

........................................................................
.............................. CYCLE   12 ..............................
........................................................................

 iter      E             dE          RMSdq      gap      omega  full diag
   1   -151.4680199 -0.151468E+03  0.763E-02    2.03       0.0  T
   2   -151.4680221 -0.214376E-05  0.446E-02    2.04       1.0  T
   3   -151.4680209  0.113761E-05  0.549E-03    2.04       2.0  T
   4   -151.4680227 -0.181021E-05  0.242E-03    2.04       4.4  T
   5   -151.4680230 -0.273553E-06  0.102E-03    2.04      10.5  T
   6   -151.4680231 -0.372923E-07  0.510E-04    2.04      21.0  T
   7   -151.4680231 -0.766892E-08  0.280E-04    2.04      38.3  T
     SCC iter.                  ...        0 min,  1.188 sec
     gradient                   ...        0 min,  0.122 sec
 * total energy  :  -149.4299983 Eh     change       -0.2321709E-03 Eh
   gradient norm :     0.0048730 Eh/α   predicted    -0.1742535E-03 ( -24.95%)
   displ. norm   :     0.4075867 α      lambda       -0.2528801E-03
   maximum displ.:     0.2013473 α      in ANC's #5, #6, #8, ...

........................................................................
.............................. CYCLE   13 ..............................
........................................................................

 iter      E             dE          RMSdq      gap      omega  full diag
   1   -151.4677256 -0.151468E+03  0.769E-02    2.03       0.0  T
   2   -151.4677284 -0.275528E-05  0.441E-02    2.04       1.0  T
   3   -151.4677272  0.118201E-05  0.697E-03    2.04       1.5  T
   4   -151.4677289 -0.166468E-05  0.327E-03    2.04       3.3  T
   5   -151.4677294 -0.540997E-06  0.119E-03    2.04       9.0  T
   6   -151.4677295 -0.893758E-07  0.553E-04    2.04      19.4  T
   7   -151.4677295 -0.113360E-07  0.316E-04    2.04      33.9  T
     SCC iter.                  ...        0 min,  1.146 sec
     gradient                   ...        0 min,  0.141 sec
 * total energy  :  -149.4301893 Eh     change       -0.1909487E-03 Eh
   gradient norm :     0.0045006 Eh/α   predicted    -0.1474491E-03 ( -22.78%)
   displ. norm   :     0.3678950 α      lambda       -0.1880479E-03
   maximum displ.:     0.1845677 α      in ANC's #5, #6, #8, ...

........................................................................
.............................. CYCLE   14 ..............................
........................................................................

 iter      E             dE          RMSdq      gap      omega  full diag
   1   -151.4687309 -0.151469E+03  0.643E-02    2.04       0.0  T
   2   -151.4687330 -0.219762E-05  0.371E-02    2.04       1.0  T
   3   -151.4687322  0.891190E-06  0.603E-03    2.04       1.8  T
   4   -151.4687335 -0.132796E-05  0.274E-03    2.04       3.9  T
   5   -151.4687338 -0.329444E-06  0.108E-03    2.04       9.9  T
   6   -151.4687339 -0.575424E-07  0.504E-04    2.04      21.3  T
   7   -151.4687339 -0.579163E-08  0.300E-04    2.04      35.7  T
     SCC iter.                  ...        0 min,  1.194 sec
     gradient                   ...        0 min,  0.132 sec
 * total energy  :  -149.4303264 Eh     change       -0.1371322E-03 Eh
   gradient norm :     0.0036694 Eh/α   predicted    -0.1067500E-03 ( -22.16%)
   displ. norm   :     0.2990034 α      lambda       -0.1192705E-03
   maximum displ.:     0.1526803 α      in ANC's #5, #6, #8, ...

........................................................................
.............................. CYCLE   15 ..............................
........................................................................

 iter      E             dE          RMSdq      gap      omega  full diag
   1   -151.4691873 -0.151469E+03  0.501E-02    2.04       0.0  T
   2   -151.4691890 -0.178283E-05  0.283E-02    2.04       1.0  T
   3   -151.4691884  0.616661E-06  0.568E-03    2.04       1.9  T
   4   -151.4691894 -0.946835E-06  0.253E-03    2.04       4.2  T
   5   -151.4691896 -0.233577E-06  0.883E-04    2.04      12.1  T
   6   -151.4691896 -0.430800E-07  0.400E-04    2.04      26.8  T
     SCC iter.                  ...        0 min,  0.688 sec
     gradient                   ...        0 min,  0.116 sec
 * total energy  :  -149.4304134 Eh     change       -0.8694865E-04 Eh
   gradient norm :     0.0030884 Eh/α   predicted    -0.6496928E-04 ( -25.28%)
   displ. norm   :     0.2267059 α      lambda       -0.8316238E-04
   maximum displ.:     0.1152230 α      in ANC's #5, #8, #2, ...

........................................................................
.............................. CYCLE   16 ..............................
........................................................................

 iter      E             dE          RMSdq      gap      omega  full diag
   1   -151.4705665 -0.151471E+03  0.335E-02    2.04       0.0  T
   2   -151.4705674 -0.907745E-06  0.192E-02    2.04       1.0  T
   3   -151.4705669  0.461381E-06  0.386E-03    2.04       2.8  T
   4   -151.4705675 -0.641606E-06  0.175E-03    2.04       6.1  T
   5   -151.4705677 -0.123200E-06  0.647E-04    2.04      16.6  T
   6   -151.4705677 -0.192726E-07  0.289E-04    2.04      37.1  T
     SCC iter.                  ...        0 min,  1.015 sec
     gradient                   ...        0 min,  0.125 sec
 * total energy  :  -149.4304743 Eh     change       -0.6094158E-04 Eh
   gradient norm :     0.0027909 Eh/α   predicted    -0.4372071E-04 ( -28.26%)
   displ. norm   :     0.2166905 α      lambda       -0.6745791E-04
   maximum displ.:     0.1098221 α      in ANC's #5, #8, #2, ...

........................................................................
.............................. CYCLE   17 ..............................
........................................................................

 iter      E             dE          RMSdq      gap      omega  full diag
   1   -151.4701731 -0.151470E+03  0.310E-02    2.04       0.0  T
   2   -151.4701739 -0.751175E-06  0.176E-02    2.04       1.0  T
   3   -151.4701733  0.621451E-06  0.394E-03    2.04       2.7  T
   4   -151.4701741 -0.838045E-06  0.170E-03    2.04       6.3  T
   5   -151.4701742 -0.113590E-06  0.506E-04    2.04      21.2  T
   6   -151.4701742 -0.971076E-08  0.222E-04    2.04      48.3  T
     SCC iter.                  ...        0 min,  1.012 sec
     gradient                   ...        0 min,  0.129 sec
 * total energy  :  -149.4305246 Eh     change       -0.5026046E-04 Eh
   gradient norm :     0.0026084 Eh/α   predicted    -0.3531452E-04 ( -29.74%)
   displ. norm   :     0.2108244 α      lambda       -0.6943486E-04
   maximum displ.:     0.0984607 α      in ANC's #2, #5, #8, ...

........................................................................
.............................. CYCLE   18 ..............................
........................................................................

 iter      E             dE          RMSdq      gap      omega  full diag
   1   -151.4712275 -0.151471E+03  0.348E-02    2.05       0.0  T
   2   -151.4712282 -0.653131E-06  0.202E-02    2.05       1.0  T
   3   -151.4712274  0.714276E-06  0.371E-03    2.05       2.9  T
   4   -151.4712284 -0.921649E-06  0.138E-03    2.05       7.7  T
   5   -151.4712284 -0.687576E-07  0.479E-04    2.05      22.4  T
   6   -151.4712284 -0.100183E-07  0.214E-04    2.05      50.2  T
     SCC iter.                  ...        0 min,  0.954 sec
     gradient                   ...        0 min,  0.118 sec
 * total energy  :  -149.4305751 Eh     change       -0.5057435E-04 Eh
   gradient norm :     0.0027586 Eh/α   predicted    -0.3626148E-04 ( -28.30%)
   displ. norm   :     0.2374655 α      lambda       -0.7046344E-04
   maximum displ.:     0.1170046 α      in ANC's #2, #5, #8, ...

........................................................................
.............................. CYCLE   19 ..............................
........................................................................

 iter      E             dE          RMSdq      gap      omega  full diag
   1   -151.4698374 -0.151470E+03  0.359E-02    2.05       0.0  T
   2   -151.4698382 -0.815354E-06  0.209E-02    2.05       1.0  T
   3   -151.4698372  0.981599E-06  0.429E-03    2.05       2.5  T
   4   -151.4698385 -0.130056E-05  0.140E-03    2.05       7.7  T
   5   -151.4698386 -0.646421E-07  0.682E-04    2.05      15.7  T
   6   -151.4698386 -0.169033E-07  0.332E-04    2.05      32.3  T
     SCC iter.                  ...        0 min,  0.865 sec
     gradient                   ...        0 min,  0.118 sec
 * total energy  :  -149.4306288 Eh     change       -0.5362085E-04 Eh
   gradient norm :     0.0030463 Eh/α   predicted    -0.3721959E-04 ( -30.59%)
   displ. norm   :     0.2495278 α      lambda       -0.7987981E-04
   maximum displ.:     0.1309954 α      in ANC's #2, #5, #7, ...

........................................................................
.............................. CYCLE   20 ..............................
........................................................................

 iter      E             dE          RMSdq      gap      omega  full diag
   1   -151.4696805 -0.151470E+03  0.447E-02    2.05       0.0  T
   2   -151.4696813 -0.770943E-06  0.261E-02    2.05       1.0  T
   3   -151.4696799  0.139900E-05  0.476E-03    2.05       2.3  T
   4   -151.4696816 -0.169918E-05  0.144E-03    2.05       7.4  T
   5   -151.4696816 -0.372123E-07  0.861E-04    2.05      12.5  T
   6   -151.4696817 -0.529768E-07  0.324E-04    2.05      33.1  T
     SCC iter.                  ...        0 min,  0.918 sec
     gradient                   ...        0 min,  0.118 sec
 * total energy  :  -149.4306894 Eh     change       -0.6067180E-04 Eh
   gradient norm :     0.0030887 Eh/α   predicted    -0.4243043E-04 ( -30.07%)
   displ. norm   :     0.2560466 α      lambda       -0.7208966E-04
   maximum displ.:     0.1385144 α      in ANC's #2, #5, #7, ...
 * RMSD in coord.:     0.5436649 α      energy gain  -0.3797068E-01 Eh

generating ANC from exact Hessian ...
Using Lindh-Hessian (1995)
 Shifting diagonal of input Hessian by    9.9055224445508405E-003
 Lowest  eigenvalues of input Hessian
    0.000000    0.000000    0.000000    0.000000    0.000000    0.000000
    0.010000    0.010100    0.010110    0.010145    0.010253    0.010396
    0.010519    0.010616    0.010702    0.011025    0.011260    0.011412
 Highest eigenvalues
    2.005543    2.018758    2.027482    2.073276    2.112698    2.125166


........................................................................
.............................. CYCLE   21 ..............................
........................................................................

 iter      E             dE          RMSdq      gap      omega  full diag
   1   -151.4689573 -0.151469E+03  0.434E-02    2.05       0.0  T
   2   -151.4689581 -0.806291E-06  0.255E-02    2.05       1.0  T
   3   -151.4689560  0.211855E-05  0.524E-03    2.05       2.0  T
   4   -151.4689585 -0.248548E-05  0.138E-03    2.05       7.8  T
   5   -151.4689586 -0.729602E-07  0.731E-04    2.05      14.7  T
   6   -151.4689586 -0.265788E-07  0.334E-04    2.05      32.1  T
     SCC iter.                  ...        0 min,  0.973 sec
     gradient                   ...        0 min,  0.117 sec
 * total energy  :  -149.4307421 Eh     change       -0.5267903E-04 Eh
   gradient norm :     0.0028695 Eh/α   predicted     0.0000000E+00 (-100.00%)
   displ. norm   :     0.0376020 α      lambda       -0.2426525E-04
   maximum displ.:     0.0139748 α      in ANC's #3, #12, #38, ...

........................................................................
.............................. CYCLE   22 ..............................
........................................................................

 iter      E             dE          RMSdq      gap      omega  full diag
   1   -151.4700671 -0.151470E+03  0.868E-03    2.05       0.0  T
   2   -151.4700672 -0.104444E-06  0.495E-03    2.05       2.2  T
   3   -151.4700671  0.137402E-06  0.164E-03    2.05       6.5  T
   4   -151.4700672 -0.146300E-06  0.620E-04    2.05      17.3  T
   5   -151.4700672 -0.197544E-07  0.271E-04    2.05      39.6  T
     SCC iter.                  ...        0 min,  0.804 sec
     gradient                   ...        0 min,  0.117 sec
 * total energy  :  -149.4307656 Eh     change       -0.2348408E-04 Eh
   gradient norm :     0.0014404 Eh/α   predicted    -0.1416145E-04 ( -39.70%)
   displ. norm   :     0.1834785 α      lambda       -0.5827935E-04
   maximum displ.:     0.0687182 α      in ANC's #3, #12, #1, ...

........................................................................
.............................. CYCLE   23 ..............................
........................................................................

 iter      E             dE          RMSdq      gap      omega  full diag
   1   -151.4721834 -0.151472E+03  0.349E-02    2.06       0.0  T
   2   -151.4721844 -0.100860E-05  0.204E-02    2.06       1.0  T
   3   -151.4721818  0.258680E-05  0.614E-03    2.05       1.7  T
   4   -151.4721846 -0.281287E-05  0.186E-03    2.06       5.8  T
   5   -151.4721848 -0.220678E-06  0.720E-04    2.06      14.9  T
   6   -151.4721848 -0.223477E-07  0.344E-04    2.06      31.2  T
     SCC iter.                  ...        0 min,  1.015 sec
     gradient                   ...        0 min,  0.116 sec
 * total energy  :  -149.4308032 Eh     change       -0.3763678E-04 Eh
   gradient norm :     0.0033225 Eh/α   predicted    -0.2957636E-04 ( -21.42%)
   displ. norm   :     0.0473753 α      lambda       -0.2228540E-04
   maximum displ.:     0.0211672 α      in ANC's #3, #6, #4, ...

........................................................................
.............................. CYCLE   24 ..............................
........................................................................

 iter      E             dE          RMSdq      gap      omega  full diag
   1   -151.4715702 -0.151472E+03  0.144E-02    2.05       0.0  T
   2   -151.4715707 -0.489325E-06  0.665E-03    2.05       1.6  T
   3   -151.4715707 -0.755597E-08  0.211E-03    2.05       5.1  T
   4   -151.4715707 -0.106783E-07  0.102E-03    2.05      10.5  T
   5   -151.4715708 -0.383762E-07  0.455E-04    2.05      23.6  T
   6   -151.4715708 -0.459144E-08  0.213E-04    2.05      50.4  T
     SCC iter.                  ...        0 min,  1.082 sec
     gradient                   ...        0 min,  0.117 sec
 * total energy  :  -149.4308185 Eh     change       -0.1530364E-04 Eh
   gradient norm :     0.0026666 Eh/α   predicted    -0.1117051E-04 ( -27.01%)
   displ. norm   :     0.0890177 α      lambda       -0.3394998E-04
   maximum displ.:     0.0398901 α      in ANC's #3, #4, #1, ...

........................................................................
.............................. CYCLE   25 ..............................
........................................................................

 iter      E             dE          RMSdq      gap      omega  full diag
   1   -151.4700980 -0.151470E+03  0.131E-02    2.05       0.0  T
   2   -151.4700982 -0.204988E-06  0.753E-03    2.06       1.4  T
   3   -151.4700980  0.194874E-06  0.216E-03    2.06       5.0  T
   4   -151.4700982 -0.239014E-06  0.735E-04    2.06      14.6  T
   5   -151.4700982 -0.222128E-07  0.317E-04    2.06      33.8  T
     SCC iter.                  ...        0 min,  0.848 sec
     gradient                   ...        0 min,  0.121 sec
 * total energy  :  -149.4308439 Eh     change       -0.2539270E-04 Eh
   gradient norm :     0.0012047 Eh/α   predicted    -0.1711541E-04 ( -32.60%)
   displ. norm   :     0.2095350 α      lambda       -0.3059713E-04
   maximum displ.:     0.0972960 α      in ANC's #3, #4, #1, ...

........................................................................
.............................. CYCLE   26 ..............................
........................................................................

 iter      E             dE          RMSdq      gap      omega  full diag
   1   -151.4687071 -0.151469E+03  0.280E-02    2.06       0.0  T
   2   -151.4687078 -0.701985E-06  0.162E-02    2.06       1.0  T
   3   -151.4687065  0.130850E-05  0.480E-03    2.06       2.2  T
   4   -151.4687080 -0.151615E-05  0.151E-03    2.06       7.1  T
   5   -151.4687081 -0.931510E-07  0.757E-04    2.06      14.2  T
   6   -151.4687081 -0.334060E-07  0.321E-04    2.06      33.4  T
     SCC iter.                  ...        0 min,  0.907 sec
     gradient                   ...        0 min,  0.117 sec
 * total energy  :  -149.4308724 Eh     change       -0.2847669E-04 Eh
   gradient norm :     0.0026542 Eh/α   predicted    -0.1560093E-04 ( -45.22%)
   displ. norm   :     0.1023897 α      lambda       -0.1995253E-04
   maximum displ.:     0.0511165 α      in ANC's #3, #1, #4, ...

........................................................................
.............................. CYCLE   27 ..............................
........................................................................

 iter      E             dE          RMSdq      gap      omega  full diag
   1   -151.4690937 -0.151469E+03  0.134E-02    2.06       0.0  T
   2   -151.4690938 -0.107859E-06  0.777E-03    2.06       1.4  T
   3   -151.4690932  0.551608E-06  0.266E-03    2.06       4.0  T
   4   -151.4690938 -0.610031E-06  0.752E-04    2.06      14.3  T
   5   -151.4690939 -0.241984E-07  0.355E-04    2.06      30.2  T
     SCC iter.                  ...        0 min,  0.798 sec
     gradient                   ...        0 min,  0.117 sec
 * total energy  :  -149.4308907 Eh     change       -0.1830675E-04 Eh
   gradient norm :     0.0023495 Eh/α   predicted    -0.1008240E-04 ( -44.93%)
   displ. norm   :     0.2544835 α      lambda       -0.5483026E-04
   maximum displ.:     0.1305243 α      in ANC's #3, #1, #4, ...

........................................................................
.............................. CYCLE   28 ..............................
........................................................................

 iter      E             dE          RMSdq      gap      omega  full diag
   1   -151.4703864 -0.151470E+03  0.344E-02    2.07       0.0  T
   2   -151.4703871 -0.666893E-06  0.199E-02    2.07       1.0  T
   3   -151.4703837  0.344962E-05  0.667E-03    2.07       1.6  T
   4   -151.4703875 -0.383411E-05  0.179E-03    2.07       6.0  T
   5   -151.4703876 -0.115202E-06  0.889E-04    2.07      12.1  T
   6   -151.4703877 -0.618728E-07  0.302E-04    2.07      35.5  T
     SCC iter.                  ...        0 min,  0.971 sec
     gradient                   ...        0 min,  0.116 sec
 * total energy  :  -149.4309357 Eh     change       -0.4499568E-04 Eh
   gradient norm :     0.0013916 Eh/α   predicted    -0.2919077E-04 ( -35.13%)
   displ. norm   :     0.5429117 α      lambda       -0.5961897E-04
   maximum displ.:     0.2866999 α      in ANC's #3, #1, #4, ...

........................................................................
.............................. CYCLE   29 ..............................
........................................................................

 iter      E             dE          RMSdq      gap      omega  full diag
   1   -151.4710103 -0.151471E+03  0.746E-02    2.07       0.0  T
   2   -151.4710132 -0.286633E-05  0.428E-02    2.08       1.0  T
   3   -151.4709991  0.140626E-04  0.136E-02    2.07       1.0  T
   4   -151.4710145 -0.154515E-04  0.412E-03    2.08       2.6  T
   5   -151.4710152 -0.654191E-06  0.188E-03    2.08       5.7  T
   6   -151.4710155 -0.305016E-06  0.595E-04    2.08      18.0  T
   7   -151.4710155 -0.114267E-07  0.329E-04    2.08      32.6  T
     SCC iter.                  ...        0 min,  1.206 sec
     gradient                   ...        0 min,  0.118 sec
 * total energy  :  -149.4310030 Eh     change       -0.6728726E-04 Eh
   gradient norm :     0.0025198 Eh/α   predicted    -0.3371569E-04 ( -49.89%)
   displ. norm   :     0.2816764 α      lambda       -0.4543606E-04
   maximum displ.:     0.1551960 α      in ANC's #3, #1, #4, ...

........................................................................
.............................. CYCLE   30 ..............................
........................................................................

 iter      E             dE          RMSdq      gap      omega  full diag
   1   -151.4710748 -0.151471E+03  0.393E-02    2.08       0.0  T
   2   -151.4710756 -0.735961E-06  0.225E-02    2.08       1.0  T
   3   -151.4710727  0.291286E-05  0.635E-03    2.08       1.7  T
   4   -151.4710758 -0.315054E-05  0.221E-03    2.08       4.9  T
   5   -151.4710760 -0.218429E-06  0.913E-04    2.08      11.7  T
   6   -151.4710761 -0.719851E-07  0.290E-04    2.08      37.0  T
     SCC iter.                  ...        0 min,  1.036 sec
     gradient                   ...        0 min,  0.117 sec
 * total energy  :  -149.4310453 Eh     change       -0.4231380E-04 Eh
   gradient norm :     0.0024244 Eh/α   predicted    -0.2452334E-04 ( -42.04%)
   displ. norm   :     0.3367532 α      lambda       -0.7171342E-04
   maximum displ.:     0.1886417 α      in ANC's #3, #1, #4, ...

........................................................................
.............................. CYCLE   31 ..............................
........................................................................

 iter      E             dE          RMSdq      gap      omega  full diag
   1   -151.4712005 -0.151471E+03  0.487E-02    2.08       0.0  T
   2   -151.4712016 -0.110283E-05  0.278E-02    2.08       1.0  T
   3   -151.4711982  0.339067E-05  0.688E-03    2.08       1.6  T
   4   -151.4712018 -0.356427E-05  0.276E-03    2.08       3.9  T
   5   -151.4712022 -0.386568E-06  0.105E-03    2.08      10.2  T
   6   -151.4712023 -0.980127E-07  0.323E-04    2.08      33.2  T
   7   -151.4712023 -0.271169E-08  0.184E-04    2.08      58.1  T
     SCC iter.                  ...        0 min,  1.149 sec
     gradient                   ...        0 min,  0.133 sec
 * total energy  :  -149.4311098 Eh     change       -0.6445091E-04 Eh
   gradient norm :     0.0016791 Eh/α   predicted    -0.3992432E-04 ( -38.05%)
   displ. norm   :     0.6682668 α      lambda       -0.9074152E-04
   maximum displ.:     0.3815411 α      in ANC's #3, #1, #4, ...

........................................................................
.............................. CYCLE   32 ..............................
........................................................................

 iter      E             dE          RMSdq      gap      omega  full diag
   1   -151.4694202 -0.151469E+03  0.939E-02    2.09       0.0  T
   2   -151.4694244 -0.428361E-05  0.535E-02    2.09       1.0  T
   3   -151.4694130  0.114698E-04  0.130E-02    2.08       1.0  T
   4   -151.4694250 -0.119883E-04  0.546E-03    2.09       2.0  T
   5   -151.4694265 -0.155233E-05  0.206E-03    2.09       5.2  T
   6   -151.4694269 -0.345527E-06  0.680E-04    2.09      15.8  T
   7   -151.4694269 -0.168459E-07  0.373E-04    2.09      28.8  T
     SCC iter.                  ...        0 min,  1.089 sec
     gradient                   ...        0 min,  0.117 sec
 * total energy  :  -149.4312159 Eh     change       -0.1060961E-03 Eh
   gradient norm :     0.0017499 Eh/α   predicted    -0.5437819E-04 ( -48.75%)
   displ. norm   :     0.5144228 α      lambda       -0.6149800E-04
   maximum displ.:     0.2963771 α      in ANC's #3, #1, #2, ...

........................................................................
.............................. CYCLE   33 ..............................
........................................................................

 iter      E             dE          RMSdq      gap      omega  full diag
   1   -151.4687425 -0.151469E+03  0.678E-02    2.09       0.0  T
   2   -151.4687451 -0.256867E-05  0.381E-02    2.09       1.0  T
   3   -151.4687397  0.536366E-05  0.945E-03    2.09       1.1  T
   4   -151.4687450 -0.526346E-05  0.460E-03    2.09       2.3  T
   5   -151.4687462 -0.119049E-05  0.155E-03    2.09       6.9  T
   6   -151.4687464 -0.209599E-06  0.474E-04    2.09      22.6  T
   7   -151.4687464 -0.542357E-08  0.276E-04    2.09      38.8  T
     SCC iter.                  ...        0 min,  1.050 sec
     gradient                   ...        0 min,  0.117 sec
 * total energy  :  -149.4312910 Eh     change       -0.7511710E-04 Eh
   gradient norm :     0.0024473 Eh/α   predicted    -0.3436712E-04 ( -54.25%)
   displ. norm   :     0.2922878 α      lambda       -0.6795031E-04
   maximum displ.:     0.1715460 α      in ANC's #3, #1, #2, ...

........................................................................
.............................. CYCLE   34 ..............................
........................................................................

 iter      E             dE          RMSdq      gap      omega  full diag
   1   -151.4697778 -0.151470E+03  0.333E-02    2.09       0.0  T
   2   -151.4697785 -0.706235E-06  0.188E-02    2.09       1.0  T
   3   -151.4697772  0.132074E-05  0.486E-03    2.09       2.2  T
   4   -151.4697786 -0.144639E-05  0.214E-03    2.09       5.0  T
   5   -151.4697788 -0.182981E-06  0.807E-04    2.09      13.3  T
   6   -151.4697788 -0.458668E-07  0.283E-04    2.09      37.9  T
     SCC iter.                  ...        0 min,  0.849 sec
     gradient                   ...        0 min,  0.121 sec
 * total energy  :  -149.4313516 Eh     change       -0.6062664E-04 Eh
   gradient norm :     0.0022891 Eh/α   predicted    -0.3688034E-04 ( -39.17%)
   displ. norm   :     0.3970325 α      lambda       -0.1037911E-03
   maximum displ.:     0.2335661 α      in ANC's #3, #1, #2, ...

........................................................................
.............................. CYCLE   35 ..............................
........................................................................

 iter      E             dE          RMSdq      gap      omega  full diag
   1   -151.4707061 -0.151471E+03  0.406E-02    2.09       0.0  T
   2   -151.4707073 -0.119025E-05  0.228E-02    2.09       1.0  T
   3   -151.4707051  0.223236E-05  0.622E-03    2.09       1.7  T
   4   -151.4707075 -0.248073E-05  0.265E-03    2.09       4.0  T
   5   -151.4707078 -0.258647E-06  0.113E-03    2.09       9.5  T
   6   -151.4707079 -0.987790E-07  0.364E-04    2.09      29.4  T
   7   -151.4707079 -0.466935E-08  0.205E-04    2.09      52.4  T
     SCC iter.                  ...        0 min,  0.952 sec
     gradient                   ...        0 min,  0.115 sec
 * total energy  :  -149.4314480 Eh     change       -0.9637549E-04 Eh
   gradient norm :     0.0020514 Eh/α   predicted    -0.6008093E-04 ( -37.66%)
   displ. norm   :     0.5305178 α      lambda       -0.1464373E-03
   maximum displ.:     0.3081061 α      in ANC's #3, #1, #2, ...

........................................................................
.............................. CYCLE   36 ..............................
........................................................................

 iter      E             dE          RMSdq      gap      omega  full diag
   1   -151.4706351 -0.151471E+03  0.519E-02    2.09       0.0  T
   2   -151.4706373 -0.215767E-05  0.292E-02    2.09       1.0  T
   3   -151.4706336  0.368253E-05  0.817E-03    2.09       1.3  T
   4   -151.4706379 -0.426754E-05  0.327E-03    2.09       3.3  T
   5   -151.4706382 -0.325674E-06  0.143E-03    2.09       7.5  T
   6   -151.4706383 -0.143306E-06  0.510E-04    2.09      21.0  T
   7   -151.4706383 -0.110113E-07  0.279E-04    2.09      38.5  T
     SCC iter.                  ...        0 min,  1.084 sec
     gradient                   ...        0 min,  0.117 sec
 * total energy  :  -149.4315825 Eh     change       -0.1344828E-03 Eh
   gradient norm :     0.0018893 Eh/α   predicted    -0.9382827E-04 ( -30.23%)
   displ. norm   :     0.8689326 α      lambda       -0.1583034E-03
   maximum displ.:     0.5166887 α      in ANC's #1, #3, #2, ...

........................................................................
.............................. CYCLE   37 ..............................
........................................................................

 iter      E             dE          RMSdq      gap      omega  full diag
   1   -151.4692369 -0.151469E+03  0.817E-02    2.09       0.0  T
   2   -151.4692422 -0.537273E-05  0.462E-02    2.10       1.0  T
   3   -151.4692338  0.846911E-05  0.125E-02    2.09       1.0  T
   4   -151.4692439 -0.101075E-04  0.483E-03    2.10       2.2  T
   5   -151.4692445 -0.640425E-06  0.208E-03    2.10       5.2  T
   6   -151.4692448 -0.266676E-06  0.803E-04    2.10      13.3  T
   7   -151.4692448 -0.256253E-07  0.449E-04    2.10      23.9  T
     SCC iter.                  ...        0 min,  1.115 sec
     gradient                   ...        0 min,  0.117 sec
 * total energy  :  -149.4317810 Eh     change       -0.1985779E-03 Eh
   gradient norm :     0.0025462 Eh/α   predicted    -0.1057150E-03 ( -46.76%)
   displ. norm   :     0.4466767 α      lambda       -0.1114828E-03
   maximum displ.:     0.2754180 α      in ANC's #1, #3, #2, ...

........................................................................
.............................. CYCLE   38 ..............................
........................................................................

 iter      E             dE          RMSdq      gap      omega  full diag
   1   -151.4700157 -0.151470E+03  0.399E-02    2.10       0.0  T
   2   -151.4700169 -0.121743E-05  0.226E-02    2.10       1.0  T
   3   -151.4700152  0.168246E-05  0.558E-03    2.10       1.9  T
   4   -151.4700173 -0.207040E-05  0.219E-03    2.10       4.9  T
   5   -151.4700174 -0.135951E-06  0.770E-04    2.10      13.9  T
   6   -151.4700175 -0.232392E-07  0.331E-04    2.10      32.4  T
     SCC iter.                  ...        0 min,  0.952 sec
     gradient                   ...        0 min,  0.117 sec
 * total energy  :  -149.4318812 Eh     change       -0.1001491E-03 Eh
   gradient norm :     0.0022699 Eh/α   predicted    -0.6686623E-04 ( -33.23%)
   displ. norm   :     0.4337766 α      lambda       -0.1080036E-03
   maximum displ.:     0.2700525 α      in ANC's #1, #3, #2, ...

........................................................................
.............................. CYCLE   39 ..............................
........................................................................

 iter      E             dE          RMSdq      gap      omega  full diag
   1   -151.4706411 -0.151471E+03  0.394E-02    2.10       0.0  T
   2   -151.4706422 -0.113937E-05  0.222E-02    2.10       1.0  T
   3   -151.4706408  0.145271E-05  0.526E-03    2.10       2.0  T
   4   -151.4706426 -0.178420E-05  0.212E-03    2.10       5.0  T
   5   -151.4706427 -0.136555E-06  0.822E-04    2.10      13.0  T
   6   -151.4706427 -0.336658E-07  0.353E-04    2.10      30.4  T
     SCC iter.                  ...        0 min,  0.855 sec
     gradient                   ...        0 min,  0.118 sec
 * total energy  :  -149.4319792 Eh     change       -0.9800374E-04 Eh
   gradient norm :     0.0020372 Eh/α   predicted    -0.6416469E-04 ( -34.53%)
   displ. norm   :     0.4357344 α      lambda       -0.1123728E-03
   maximum displ.:     0.2792124 α      in ANC's #1, #3, #2, ...

........................................................................
.............................. CYCLE   40 ..............................
........................................................................

 iter      E             dE          RMSdq      gap      omega  full diag
   1   -151.4716629 -0.151472E+03  0.412E-02    2.10       0.0  T
   2   -151.4716642 -0.129171E-05  0.232E-02    2.10       1.0  T
   3   -151.4716630  0.118233E-05  0.503E-03    2.10       2.1  T
   4   -151.4716645 -0.145717E-05  0.220E-03    2.10       4.9  T
   5   -151.4716646 -0.171133E-06  0.782E-04    2.10      13.7  T
   6   -151.4716647 -0.271097E-07  0.341E-04    2.10      31.4  T
     SCC iter.                  ...        0 min,  0.762 sec
     gradient                   ...        0 min,  0.183 sec
 * total energy  :  -149.4320800 Eh     change       -0.1008473E-03 Eh
   gradient norm :     0.0017123 Eh/α   predicted    -0.6685856E-04 ( -33.70%)
   displ. norm   :     0.6700495 α      lambda       -0.1130164E-03
   maximum displ.:     0.4286031 α      in ANC's #1, #3, #2, ...

........................................................................
.............................. CYCLE   41 ..............................
........................................................................

 iter      E             dE          RMSdq      gap      omega  full diag
   1   -151.4709078 -0.151471E+03  0.694E-02    2.10       0.0  T
   2   -151.4709112 -0.342871E-05  0.390E-02    2.10       1.0  T
   3   -151.4709082  0.296752E-05  0.834E-03    2.10       1.3  T
   4   -151.4709118 -0.360481E-05  0.361E-03    2.10       3.0  T
   5   -151.4709124 -0.530667E-06  0.134E-03    2.10       8.0  T
   6   -151.4709124 -0.839859E-07  0.580E-04    2.10      18.5  T
   7   -151.4709124 -0.896503E-08  0.348E-04    2.10      30.9  T
     SCC iter.                  ...        0 min,  1.094 sec
     gradient                   ...        0 min,  0.117 sec
 * total energy  :  -149.4322221 Eh     change       -0.1420939E-03 Eh
   gradient norm :     0.0022595 Eh/α   predicted    -0.6778777E-04 ( -52.29%)
   displ. norm   :     0.3876231 α      lambda       -0.1074706E-03
   maximum displ.:     0.2611762 α      in ANC's #1, #2, #3, ...

........................................................................
.............................. CYCLE   42 ..............................
........................................................................

 iter      E             dE          RMSdq      gap      omega  full diag
   1   -151.4718559 -0.151472E+03  0.434E-02    2.10       0.0  T
   2   -151.4718572 -0.136519E-05  0.247E-02    2.10       1.0  T
   3   -151.4718565  0.673901E-06  0.431E-03    2.10       2.5  T
   4   -151.4718574 -0.826022E-06  0.208E-03    2.10       5.2  T
   5   -151.4718576 -0.191517E-06  0.747E-04    2.10      14.3  T
   6   -151.4718576 -0.277485E-07  0.305E-04    2.10      35.2  T
     SCC iter.                  ...        0 min,  0.831 sec
     gradient                   ...        0 min,  0.117 sec
 * total energy  :  -149.4323154 Eh     change       -0.9328172E-04 Eh
   gradient norm :     0.0023056 Eh/α   predicted    -0.6181076E-04 ( -33.74%)
   displ. norm   :     0.3798236 α      lambda       -0.1085983E-03
   maximum displ.:     0.2566735 α      in ANC's #1, #2, #3, ...
 * RMSD in coord.:     0.7884501 α      energy gain  -0.1625979E-02 Eh

generating ANC from exact Hessian ...
Using Lindh-Hessian (1995)
 Shifting diagonal of input Hessian by    9.8857406679522183E-003
 Lowest  eigenvalues of input Hessian
    0.000000    0.000000    0.000000    0.000000    0.000000    0.000000
    0.010000    0.010105    0.010161    0.010188    0.010316    0.010409
    0.010549    0.010662    0.011001    0.011165    0.011289    0.011431
 Highest eigenvalues
    2.010107    2.017486    2.028625    2.073316    2.111546    2.124687


........................................................................
.............................. CYCLE   43 ..............................
........................................................................

 iter      E             dE          RMSdq      gap      omega  full diag
   1   -151.4725926 -0.151473E+03  0.468E-02    2.10       0.0  T
   2   -151.4725937 -0.108936E-05  0.265E-02    2.10       1.0  T
   3   -151.4725931  0.525249E-06  0.430E-03    2.10       2.5  T
   4   -151.4725937 -0.552157E-06  0.227E-03    2.10       4.7  T
   5   -151.4725940 -0.307690E-06  0.678E-04    2.10      15.8  T
   6   -151.4725940 -0.211493E-07  0.315E-04    2.10      34.0  T
     SCC iter.                  ...        0 min,  0.812 sec
     gradient                   ...        0 min,  0.126 sec
 * total energy  :  -149.4324162 Eh     change       -0.1008331E-03 Eh
   gradient norm :     0.0024974 Eh/α   predicted     0.0000000E+00 (-100.00%)
   displ. norm   :     0.0530149 α      lambda       -0.4084146E-04
   maximum displ.:     0.0315677 α      in ANC's #1, #10, #4, ...

........................................................................
.............................. CYCLE   44 ..............................
........................................................................

 iter      E             dE          RMSdq      gap      omega  full diag
   1   -151.4727734 -0.151473E+03  0.936E-03    2.10       0.0  T
   2   -151.4727735 -0.126825E-06  0.538E-03    2.10       2.0  T
   3   -151.4727734  0.991136E-07  0.170E-03    2.10       6.3  T
   4   -151.4727735 -0.121514E-06  0.549E-04    2.10      19.5  T
   5   -151.4727735 -0.826481E-08  0.279E-04    2.10      38.4  T
     SCC iter.                  ...        0 min,  0.843 sec
     gradient                   ...        0 min,  0.148 sec
 * total energy  :  -149.4324528 Eh     change       -0.3657050E-04 Eh
   gradient norm :     0.0013176 Eh/α   predicted    -0.2079937E-04 ( -43.13%)
   displ. norm   :     0.2700474 α      lambda       -0.1063649E-03
   maximum displ.:     0.1528047 α      in ANC's #1, #10, #4, ...

........................................................................
.............................. CYCLE   45 ..............................
........................................................................

 iter      E             dE          RMSdq      gap      omega  full diag
   1   -151.4727087 -0.151473E+03  0.487E-02    2.10       0.0  T
   2   -151.4727113 -0.259518E-05  0.272E-02    2.10       1.0  T
   3   -151.4727098  0.153814E-05  0.760E-03    2.10       1.4  T
   4   -151.4727116 -0.182704E-05  0.318E-03    2.10       3.4  T
   5   -151.4727119 -0.342778E-06  0.113E-03    2.10       9.4  T
   6   -151.4727120 -0.622479E-07  0.554E-04    2.10      19.4  T
   7   -151.4727120 -0.218456E-07  0.266E-04    2.10      40.2  T
     SCC iter.                  ...        0 min,  1.167 sec
     gradient                   ...        0 min,  0.138 sec
 * total energy  :  -149.4325505 Eh     change       -0.9765557E-04 Eh
   gradient norm :     0.0034302 Eh/α   predicted    -0.5491222E-04 ( -43.77%)
   displ. norm   :     0.1365104 α      lambda       -0.5726180E-04
   maximum displ.:     0.0832884 α      in ANC's #1, #10, #4, ...

........................................................................
.............................. CYCLE   46 ..............................
........................................................................

 iter      E             dE          RMSdq      gap      omega  full diag
   1   -151.4723601 -0.151472E+03  0.253E-02    2.10       0.0  T
   2   -151.4723609 -0.797101E-06  0.141E-02    2.10       1.0  T
   3   -151.4723607  0.250434E-06  0.344E-03    2.10       3.1  T
   4   -151.4723609 -0.278334E-06  0.146E-03    2.10       7.4  T
   5   -151.4723611 -0.110555E-06  0.609E-04    2.10      17.6  T
   6   -151.4723611 -0.734840E-08  0.324E-04    2.10      33.1  T
     SCC iter.                  ...        0 min,  1.223 sec
     gradient                   ...        0 min,  0.121 sec
 * total energy  :  -149.4325935 Eh     change       -0.4305704E-04 Eh
   gradient norm :     0.0032086 Eh/α   predicted    -0.2916821E-04 ( -32.26%)
   displ. norm   :     0.1826415 α      lambda       -0.7315569E-04
   maximum displ.:     0.1133122 α      in ANC's #1, #10, #4, ...

........................................................................
.............................. CYCLE   47 ..............................
........................................................................

 iter      E             dE          RMSdq      gap      omega  full diag
   1   -151.4720904 -0.151472E+03  0.323E-02    2.10       0.0  T
   2   -151.4720910 -0.577004E-06  0.184E-02    2.10       1.0  T
   3   -151.4720903  0.740410E-06  0.377E-03    2.10       2.8  T
   4   -151.4720911 -0.809183E-06  0.158E-03    2.10       6.8  T
   5   -151.4720912 -0.137868E-06  0.373E-04    2.10      28.7  T
   6   -151.4720912 -0.312056E-08  0.202E-04    2.10      53.0  T
     SCC iter.                  ...        0 min,  1.219 sec
     gradient                   ...        0 min,  0.122 sec
 * total energy  :  -149.4326550 Eh     change       -0.6149919E-04 Eh
   gradient norm :     0.0021093 Eh/α   predicted    -0.3779866E-04 ( -38.54%)
   displ. norm   :     0.2300156 α      lambda       -0.8205727E-04
   maximum displ.:     0.1476860 α      in ANC's #1, #4, #10, ...

........................................................................
.............................. CYCLE   48 ..............................
........................................................................

 iter      E             dE          RMSdq      gap      omega  full diag
   1   -151.4719726 -0.151472E+03  0.394E-02    2.09       0.0  T
   2   -151.4719734 -0.772127E-06  0.229E-02    2.09       1.0  T
   3   -151.4719719  0.154717E-05  0.465E-03    2.09       2.3  T
   4   -151.4719736 -0.177436E-05  0.147E-03    2.09       7.3  T
   5   -151.4719737 -0.952905E-07  0.586E-04    2.09      18.3  T
   6   -151.4719738 -0.178201E-07  0.285E-04    2.09      37.6  T
     SCC iter.                  ...        0 min,  1.490 sec
     gradient                   ...        0 min,  0.122 sec
 * total energy  :  -149.4327228 Eh     change       -0.6774088E-04 Eh
   gradient norm :     0.0018243 Eh/α   predicted    -0.4320235E-04 ( -36.22%)
   displ. norm   :     0.3457679 α      lambda       -0.7254130E-04
   maximum displ.:     0.2293872 α      in ANC's #1, #4, #8, ...

........................................................................
.............................. CYCLE   49 ..............................
........................................................................

 iter      E             dE          RMSdq      gap      omega  full diag
   1   -151.4719491 -0.151472E+03  0.572E-02    2.09       0.0  T
   2   -151.4719504 -0.137107E-05  0.332E-02    2.09       1.0  T
   3   -151.4719468  0.362226E-05  0.676E-03    2.09       1.6  T
   4   -151.4719511 -0.424434E-05  0.165E-03    2.09       6.5  T
   5   -151.4719511 -0.702099E-07  0.897E-04    2.09      12.0  T
   6   -151.4719512 -0.490683E-07  0.361E-04    2.09      29.7  T
     SCC iter.                  ...        0 min,  0.696 sec
     gradient                   ...        0 min,  0.118 sec
 * total energy  :  -149.4328075 Eh     change       -0.8470675E-04 Eh
   gradient norm :     0.0028799 Eh/α   predicted    -0.3819883E-04 ( -54.90%)
   displ. norm   :     0.1740719 α      lambda       -0.5524217E-04
   maximum displ.:     0.1209813 α      in ANC's #1, #4, #8, ...

........................................................................
.............................. CYCLE   50 ..............................
........................................................................

 iter      E             dE          RMSdq      gap      omega  full diag
   1   -151.4722343 -0.151472E+03  0.276E-02    2.09       0.0  T
   2   -151.4722346 -0.352152E-06  0.158E-02    2.09       1.0  T
   3   -151.4722341  0.582137E-06  0.317E-03    2.09       3.4  T
   4   -151.4722347 -0.652639E-06  0.137E-03    2.09       7.8  T
   5   -151.4722348 -0.762593E-07  0.574E-04    2.09      18.7  T
   6   -151.4722348 -0.252407E-07  0.196E-04    2.09      54.7  T
     SCC iter.                  ...        0 min,  1.107 sec
     gradient                   ...        0 min,  0.123 sec
 * total energy  :  -149.4328562 Eh     change       -0.4877426E-04 Eh
   gradient norm :     0.0025365 Eh/α   predicted    -0.2845839E-04 ( -41.65%)
   displ. norm   :     0.1890185 α      lambda       -0.6571991E-04
   maximum displ.:     0.1350998 α      in ANC's #1, #4, #8, ...

........................................................................
.............................. CYCLE   51 ..............................
........................................................................

 iter      E             dE          RMSdq      gap      omega  full diag
   1   -151.4728729 -0.151473E+03  0.265E-02    2.09       0.0  T
   2   -151.4728732 -0.352532E-06  0.153E-02    2.09       1.0  T
   3   -151.4728725  0.725444E-06  0.320E-03    2.09       3.4  T
   4   -151.4728733 -0.830743E-06  0.110E-03    2.09       9.8  T
   5   -151.4728734 -0.638984E-07  0.546E-04    2.09      19.6  T
   6   -151.4728734 -0.156020E-07  0.210E-04    2.09      51.0  T
     SCC iter.                  ...        0 min,  1.218 sec
     gradient                   ...        0 min,  0.122 sec
 * total energy  :  -149.4329130 Eh     change       -0.5671874E-04 Eh
   gradient norm :     0.0015935 Eh/α   predicted    -0.3403909E-04 ( -39.99%)
   displ. norm   :     0.2934409 α      lambda       -0.5853951E-04
   maximum displ.:     0.2162197 α      in ANC's #1, #4, #3, ...

........................................................................
.............................. CYCLE   52 ..............................
........................................................................

 iter      E             dE          RMSdq      gap      omega  full diag
   1   -151.4729732 -0.151473E+03  0.371E-02    2.09       0.0  T
   2   -151.4729738 -0.652490E-06  0.215E-02    2.09       1.0  T
   3   -151.4729725  0.136788E-05  0.432E-03    2.09       2.5  T
   4   -151.4729741 -0.158620E-05  0.166E-03    2.09       6.5  T
   5   -151.4729742 -0.119650E-06  0.797E-04    2.09      13.5  T
   6   -151.4729742 -0.409918E-07  0.297E-04    2.09      36.1  T
     SCC iter.                  ...        0 min,  1.199 sec
     gradient                   ...        0 min,  0.141 sec
 * total energy  :  -149.4329841 Eh     change       -0.7110039E-04 Eh
   gradient norm :     0.0016037 Eh/α   predicted    -0.3039079E-04 ( -57.26%)
   displ. norm   :     0.1908807 α      lambda       -0.3556470E-04
   maximum displ.:     0.1483360 α      in ANC's #1, #4, #3, ...

........................................................................
.............................. CYCLE   53 ..............................
........................................................................

 iter      E             dE          RMSdq      gap      omega  full diag
   1   -151.4730635 -0.151473E+03  0.191E-02    2.09       0.0  T
   2   -151.4730637 -0.216493E-06  0.112E-02    2.09       1.0  T
   3   -151.4730633  0.399778E-06  0.232E-03    2.09       4.6  T
   4   -151.4730638 -0.485853E-06  0.869E-04    2.09      12.3  T
   5   -151.4730638 -0.285145E-07  0.432E-04    2.09      24.8  T
     SCC iter.                  ...        0 min,  0.884 sec
     gradient                   ...        0 min,  0.120 sec
 * total energy  :  -149.4330337 Eh     change       -0.4961272E-04 Eh
   gradient norm :     0.0016986 Eh/α   predicted    -0.1807265E-04 ( -63.57%)
   displ. norm   :     0.1514986 α      lambda       -0.3539935E-04
   maximum displ.:     0.1199711 α      in ANC's #1, #4, #3, ...

........................................................................
.............................. CYCLE   54 ..............................
........................................................................

 iter      E             dE          RMSdq      gap      omega  full diag
   1   -151.4731984 -0.151473E+03  0.126E-02    2.09       0.0  T
   2   -151.4731986 -0.165733E-06  0.744E-03    2.09       1.4  T
   3   -151.4731985  0.101248E-06  0.167E-03    2.09       6.4  T
   4   -151.4731986 -0.153849E-06  0.659E-04    2.09      16.3  T
   5   -151.4731987 -0.975180E-08  0.304E-04    2.09      35.3  T
     SCC iter.                  ...        0 min,  0.957 sec
     gradient                   ...        0 min,  0.122 sec
 * total energy  :  -149.4330832 Eh     change       -0.4955322E-04 Eh
   gradient norm :     0.0012508 Eh/α   predicted    -0.1788415E-04 ( -63.91%)
   displ. norm   :     0.1720404 α      lambda       -0.4028868E-04
   maximum displ.:     0.1336794 α      in ANC's #1, #4, #9, ...

........................................................................
.............................. CYCLE   55 ..............................
........................................................................

 iter      E             dE          RMSdq      gap      omega  full diag
   1   -151.4730643 -0.151473E+03  0.149E-02    2.09       0.0  T
   2   -151.4730645 -0.218480E-06  0.863E-03    2.09       1.2  T
   3   -151.4730644  0.661495E-07  0.184E-03    2.09       5.8  T
   4   -151.4730646 -0.127583E-06  0.780E-04    2.09      13.7  T
   5   -151.4730646 -0.134542E-07  0.305E-04    2.09      35.1  T
     SCC iter.                  ...        0 min,  0.893 sec
     gradient                   ...        0 min,  0.136 sec
 * total energy  :  -149.4331379 Eh     change       -0.5467712E-04 Eh
   gradient norm :     0.0008404 Eh/α   predicted    -0.2041386E-04 ( -62.66%)
   displ. norm   :     0.1876483 α      lambda       -0.3914139E-04
   maximum displ.:     0.1446761 α      in ANC's #1, #8, #4, ...

........................................................................
.............................. CYCLE   56 ..............................
........................................................................

 iter      E             dE          RMSdq      gap      omega  full diag
   1   -151.4730485 -0.151473E+03  0.162E-02    2.09       0.0  T
   2   -151.4730488 -0.223171E-06  0.946E-03    2.09       1.1  T
   3   -151.4730487  0.115022E-06  0.196E-03    2.09       5.5  T
   4   -151.4730488 -0.179949E-06  0.804E-04    2.09      13.3  T
   5   -151.4730488 -0.155203E-07  0.327E-04    2.09      32.8  T
     SCC iter.                  ...        0 min,  1.208 sec
     gradient                   ...        0 min,  0.124 sec
 * total energy  :  -149.4331901 Eh     change       -0.5219972E-04 Eh
   gradient norm :     0.0008861 Eh/α   predicted    -0.1988057E-04 ( -61.91%)
   displ. norm   :     0.1759591 α      lambda       -0.3298547E-04
   maximum displ.:     0.1360092 α      in ANC's #1, #8, #5, ...

........................................................................
.............................. CYCLE   57 ..............................
........................................................................

 iter      E             dE          RMSdq      gap      omega  full diag
   1   -151.4730357 -0.151473E+03  0.151E-02    2.09       0.0  T
   2   -151.4730358 -0.140071E-06  0.877E-03    2.09       1.2  T
   3   -151.4730358  0.632147E-07  0.152E-03    2.09       7.1  T
   4   -151.4730359 -0.990893E-07  0.707E-04    2.09      15.2  T
   5   -151.4730359 -0.144500E-07  0.320E-04    2.09      33.6  T
     SCC iter.                  ...        0 min,  1.061 sec
     gradient                   ...        0 min,  0.121 sec
 * total energy  :  -149.4332345 Eh     change       -0.4434551E-04 Eh
   gradient norm :     0.0010087 Eh/α   predicted    -0.1672189E-04 ( -62.29%)
   displ. norm   :     0.1514873 α      lambda       -0.2728595E-04
   maximum displ.:     0.1186310 α      in ANC's #1, #8, #5, ...

........................................................................
.............................. CYCLE   58 ..............................
........................................................................

 iter      E             dE          RMSdq      gap      omega  full diag
   1   -151.4730326 -0.151473E+03  0.126E-02    2.09       0.0  T
   2   -151.4730327 -0.972092E-07  0.732E-03    2.09       1.5  T
   3   -151.4730326  0.742921E-07  0.133E-03    2.09       8.1  T
   4   -151.4730327 -0.102024E-06  0.556E-04    2.09      19.3  T
   5   -151.4730327 -0.107745E-07  0.189E-04    2.09      56.8  T
     SCC iter.                  ...        0 min,  0.850 sec
     gradient                   ...        0 min,  0.149 sec
 * total energy  :  -149.4332725 Eh     change       -0.3803497E-04 Eh
   gradient norm :     0.0009973 Eh/α   predicted    -0.1378473E-04 ( -63.76%)
   displ. norm   :     0.1353425 α      lambda       -0.2506791E-04
   maximum displ.:     0.1083022 α      in ANC's #1, #8, #5, ...

........................................................................
.............................. CYCLE   59 ..............................
........................................................................

[...]
    24   6 C        2.988    -0.027    28.659     8.782
    25   6 C        3.335     0.491    17.239     6.578
    26   9 F        0.791    -0.196    11.192     3.952
    27   9 F        0.792    -0.192    11.148     3.944
    28   9 F        0.791    -0.214    11.383     3.985
    29   7 N        2.684    -0.123    23.673     7.226
    30   6 C        3.764    -0.039    21.308     6.580
    31   6 C        3.221     0.050    26.177     8.318
    32   6 C        2.913    -0.048    29.182     8.858
    33   6 C        2.919    -0.033    28.817     8.803
    34   6 C        2.986     0.014    27.704     8.634
    35   6 C        2.919    -0.030    28.760     8.794
    36   6 C        2.915    -0.021    28.538     8.760
    37   6 C        2.917    -0.022    28.555     8.763
    38   6 C        2.917    -0.032    28.794     8.799
    39   6 C        2.988     0.011    27.758     8.642
    40   6 C        2.980    -0.010    28.253     8.719
    41   6 C        2.977    -0.013    28.328     8.730
    42   6 C        3.060     0.053    26.753     8.482
    43   6 C        2.916    -0.052    29.289     8.875
    44   6 C        2.918    -0.034    28.855     8.809
    45   6 C        2.987     0.011    27.769     8.644
    46   6 C        2.920    -0.032    28.795     8.800
    47   6 C        2.915    -0.023    28.589     8.768
    48   6 C        2.917    -0.024    28.596     8.769
    49   6 C        2.917    -0.034    28.857     8.809
    50   6 C        2.988     0.011    27.768     8.644
    51   7 N        2.682    -0.121    23.638     7.221
    52   6 C        3.917    -0.047    21.343     6.566
    53   1 H        0.925     0.071     2.078     2.254
    54   1 H        0.925     0.055     2.260     2.351
    55   1 H        0.925     0.053     2.287     2.365
    56   1 H        0.924     0.060     2.198     2.319
    57   1 H        0.925     0.056     2.242     2.341
    58   1 H        0.925     0.064     2.149     2.292
    59   1 H        0.925     0.059     2.214     2.327
    60   1 H        0.924     0.091     1.874     2.141
    61   1 H        0.926     0.058     2.227     2.334
    62   1 H        0.926     0.065     2.144     2.290
    63   1 H        0.926     0.063     2.168     2.303
    64   1 H        0.926     0.056     2.244     2.342
    65   1 H        0.926     0.043     2.414     2.430
    66   1 H        0.926     0.066     2.124     2.279
    67   1 H        0.926     0.070     2.084     2.257
    68   1 H        0.926     0.078     2.004     2.214
    69   1 H        0.926     0.085     1.932     2.174
    70   1 H        0.925     0.067     2.117     2.275
    71   1 H        0.925     0.074     2.042     2.235
    72   1 H        0.924     0.057     2.229     2.335
    73   1 H        0.926     0.051     2.306     2.375
    74   1 H        0.926     0.058     2.219     2.330
    75   1 H        0.926     0.051     2.307     2.375
    76   1 H        0.926     0.053     2.277     2.360
    77   1 H        0.926     0.050     2.315     2.380
    78   1 H        0.926     0.040     2.448     2.447
    79   1 H        0.926     0.051     2.305     2.374
    80   1 H        0.926     0.055     2.262     2.352
    81   1 H        0.926     0.049     2.334     2.389
    82   1 H        0.926     0.051     2.306     2.375
    83   1 H        0.926     0.048     2.348     2.396
    84   1 H        0.926     0.037     2.485     2.465
    85   1 H        0.924     0.066     2.131     2.283
    86   1 H        0.925     0.078     1.997     2.210
    87   1 H        0.925     0.072     2.062     2.246

 Mol. C6AA /au·bohr⁶  :     107610.387559
 Mol. C8AA /au·bohr⁸  :    2872629.088419
 Mol. α(0) /au        :        520.770584


Wiberg/Mayer (AO) data.
largest (>0.10) Wiberg bond orders for each atom

 ---------------------------------------------------------------------------
     #   Z sym  total        # sym  WBO       # sym  WBO       # sym  WBO
 ---------------------------------------------------------------------------
     1   6 C    3.989 --     2 C    1.006    54 H    0.979    53 H    0.976
                            55 H    0.975
     2   6 C    3.946 --     3 C    1.007     1 C    1.006    56 H    0.945
                             4 N    0.918
     3   6 C    3.985 --     2 C    1.007    57 H    0.981    58 H    0.978
                            59 H    0.971
     4   7 N    3.373 --    16 P    1.198     5 C    0.970     2 C    0.918
     5   6 C    3.960 --     6 C    0.973     4 N    0.970    60 H    0.940
                            12 C    0.934
     6   6 C    3.975 --     7 C    1.401    11 C    1.397     5 C    0.973
                             9 C    0.106
     7   6 C    3.988 --     8 C    1.428     6 C    1.401    61 H    0.965
                            10 C    0.106
     8   6 C    3.988 --     9 C    1.449     7 C    1.428    62 H    0.968
                            11 C    0.110
     9   6 C    3.985 --     8 C    1.449    10 C    1.426    63 H    0.968
                             6 C    0.106
    10   6 C    3.987 --    11 C    1.454     9 C    1.426    64 H    0.969
                             7 C    0.106
    11   6 C    3.990 --    10 C    1.454     6 C    1.397    65 H    0.962
                             8 C    0.110
    12   6 C    3.827 --    14 F    0.971    15 F    0.951     5 C    0.934
                            13 F    0.933
    13   9 F    1.107 --    12 C    0.933
    14   9 F    1.098 --    12 C    0.971
    15   9 F    1.079 --    12 C    0.951
    16  15 P    5.123 --    29 N    1.232    51 N    1.209     4 N    1.198
                            17 S    1.014
    17  16 S    2.498 --    18 S    1.148    16 P    1.014
    18  16 S    2.366 --    17 S    1.148    19 C    0.990
    19   6 C    3.964 --    20 C    1.403    24 C    1.380    18 S    0.990
                            22 C    0.102
    20   6 C    3.986 --    21 C    1.440    19 C    1.403    66 H    0.961
                            23 C    0.105
    21   6 C    3.988 --    20 C    1.440    22 C    1.435    67 H    0.966
                            24 C    0.105
    22   6 C    3.978 --    23 C    1.436    21 C    1.435    68 H    0.966
                            19 C    0.102
    23   6 C    3.984 --    22 C    1.436    24 C    1.415    69 H    0.962
                            20 C    0.105
    24   6 C    3.975 --    23 C    1.415    19 C    1.380    25 C    0.948
                            21 C    0.105
    25   6 C    3.832 --    27 F    0.963    26 F    0.955    24 C    0.948
                            28 F    0.929
    26   9 F    1.087 --    25 C    0.955
    27   9 F    1.089 --    25 C    0.963
    28   9 F    1.065 --    25 C    0.929
    29   7 N    3.413 --    16 P    1.232    30 C    0.969    31 C    0.950
    30   6 C    3.955 --    72 H    0.977    71 H    0.974    29 N    0.969
                            70 H    0.968
    31   6 C    3.947 --    40 C    1.452    32 C    1.289    29 N    0.950
    32   6 C    3.986 --    33 C    1.547    31 C    1.289    73 H    0.962
    33   6 C    3.984 --    32 C    1.547    34 C    1.274    74 H    0.966
                            40 C    0.106
    34   6 C    3.988 --    35 C    1.281    33 C    1.274    39 C    1.252
    35   6 C    3.988 --    36 C    1.554    34 C    1.281    75 H    0.967
                            38 C    0.117
    36   6 C    3.986 --    35 C    1.554    37 C    1.323    76 H    0.969
    37   6 C    3.988 --    38 C    1.551    36 C    1.323    77 H    0.969
    38   6 C    3.988 --    37 C    1.551    39 C    1.286    78 H    0.966
                            35 C    0.117
    39   6 C    3.987 --    38 C    1.286    34 C    1.252    40 C    1.232
    40   6 C    3.986 --    31 C    1.452    39 C    1.232    41 C    1.031
                            33 C    0.106
    41   6 C    3.985 --    42 C    1.453    50 C    1.230    40 C    1.031
                            44 C    0.105
    42   6 C    3.946 --    41 C    1.453    43 C    1.281    51 N    0.991
    43   6 C    3.987 --    44 C    1.558    42 C    1.281    79 H    0.961
    44   6 C    3.984 --    43 C    1.558    45 C    1.271    80 H    0.966
                            41 C    0.105
    45   6 C    3.988 --    46 C    1.281    44 C    1.271    50 C    1.255
    46   6 C    3.988 --    47 C    1.554    45 C    1.281    81 H    0.967
                            49 C    0.117
    47   6 C    3.985 --    46 C    1.554    48 C    1.324    82 H    0.969
    48   6 C    3.990 --    49 C    1.551    47 C    1.324    83 H    0.970
    49   6 C    3.989 --    48 C    1.551    50 C    1.286    84 H    0.965
                            46 C    0.117
    50   6 C    3.987 --    49 C    1.286    45 C    1.255    41 C    1.230
    51   7 N    3.438 --    16 P    1.209    42 C    0.991    52 C    0.971
    52   6 C    3.957 --    86 H    0.976    51 N    0.971    85 H    0.968
                            87 H    0.955
    53   1 H    0.994 --     1 C    0.976
    54   1 H    0.997 --     1 C    0.979
    55   1 H    0.997 --     1 C    0.975
    56   1 H    0.996 --     2 C    0.945
    57   1 H    0.997 --     3 C    0.981
    58   1 H    0.995 --     3 C    0.978
    59   1 H    0.996 --     3 C    0.971
    60   1 H    0.991 --     5 C    0.940
    61   1 H    0.997 --     7 C    0.965
    62   1 H    0.995 --     8 C    0.968
    63   1 H    0.995 --     9 C    0.968
    64   1 H    0.996 --    10 C    0.969
    65   1 H    0.998 --    11 C    0.962
    66   1 H    0.995 --    20 C    0.961
    67   1 H    0.994 --    21 C    0.966
    68   1 H    0.993 --    22 C    0.966
    69   1 H    0.993 --    23 C    0.962
    70   1 H    0.995 --    30 C    0.968
    71   1 H    0.994 --    30 C    0.974
    72   1 H    0.996 --    30 C    0.977
    73   1 H    0.996 --    32 C    0.962
    74   1 H    0.995 --    33 C    0.966
    75   1 H    0.997 --    35 C    0.967
    76   1 H    0.996 --    36 C    0.969
    77   1 H    0.997 --    37 C    0.969
    78   1 H    0.998 --    38 C    0.966
    79   1 H    0.996 --    43 C    0.961
    80   1 H    0.996 --    44 C    0.966
    81   1 H    0.997 --    46 C    0.967
    82   1 H    0.997 --    47 C    0.969
    83   1 H    0.997 --    48 C    0.970
    84   1 H    0.998 --    49 C    0.965
    85   1 H    0.995 --    52 C    0.968
    86   1 H    0.993 --    52 C    0.976
    87   1 H    0.994 --    52 C    0.955
 ---------------------------------------------------------------------------

Topologies differ in total number of bonds
Writing topology from bond orders to xtbtopo.mol

molecular dipole:
                 x           y           z       tot (Debye)
 q only:        1.700       0.523       0.118
   full:        1.363       0.305      -0.067       3.553
molecular quadrupole (traceless):
                xx          xy          yy          xz          yz          zz
 q only:      -14.010     -18.544      13.267      -0.918     -23.470       0.742
  q+dip:      -11.451     -16.601      12.435      -0.448     -20.203      -0.984
   full:      -13.596     -16.448      11.941      -0.217     -23.817       1.655

           -------------------------------------------------
          |                Geometry Summary                 |
           -------------------------------------------------

      molecular mass/u    :      766.8212277
   center of mass at/Å    :       -0.5179000      -0.0556492       0.2622779
  moments of inertia/u·Å² :        0.6839143E+04   0.9190064E+04   0.1257569E+05
rotational constants/cm⁻¹ :        0.2464875E-02   0.1834332E-02   0.1340494E-02

 * 88 selected distances

     #   Z          #   Z                                           value/Å
     1   6 C        2   6 C                                       1.5275346
     2   6 C        3   6 C                                       1.5245262
     4   7 N        5   6 C                                       1.4637048
     6   6 C        7   6 C                                       1.3927442
     7   6 C        8   6 C                                       1.3863543
     8   6 C        9   6 C                                       1.3820920
     9   6 C       10   6 C                                       1.3853690
     6   6 C       11   6 C                                       1.3932481
    10   6 C       11   6 C                                       1.3815985
     5   6 C       12   6 C                                       1.5304193
    12   6 C       13   9 F                                       1.3473105
    12   6 C       14   9 F                                       1.3286153
    12   6 C       15   9 F                                       1.3393525
     4   7 N       16  15 P                                       1.6741296
    16  15 P       17  16 S                                       2.1197928 (max)
    17  16 S       18  16 S                                       2.0537310
    19   6 C       20   6 C                                       1.3890281
    20   6 C       21   6 C                                       1.3831991
    21   6 C       22   6 C                                       1.3849456
    22   6 C       23   6 C                                       1.3840747
    19   6 C       24   6 C                                       1.3945604
    23   6 C       24   6 C                                       1.3908269
    25   6 C       26   9 F                                       1.3379738
    25   6 C       27   9 F                                       1.3331102
    25   6 C       28   9 F                                       1.3540422
    16  15 P       29   7 N                                       1.6509499
    29   7 N       30   6 C                                       1.4539155
    29   7 N       31   6 C                                       1.4345066
    31   6 C       32   6 C                                       1.4050992
    32   6 C       33   6 C                                       1.3665438
    33   6 C       34   6 C                                       1.4110955
    34   6 C       35   6 C                                       1.4101948
    35   6 C       36   6 C                                       1.3669428
    36   6 C       37   6 C                                       1.4031029
    37   6 C       38   6 C                                       1.3675141
    34   6 C       39   6 C                                       1.4205399
    38   6 C       39   6 C                                       1.4106931
    31   6 C       40   6 C                                       1.3761802
    39   6 C       40   6 C                                       1.4236964
    41   6 C       42   6 C                                       1.3798768
    42   6 C       43   6 C                                       1.4097111
    43   6 C       44   6 C                                       1.3639950
    44   6 C       45   6 C                                       1.4094028
    45   6 C       46   6 C                                       1.4098857
    46   6 C       47   6 C                                       1.3664057
    47   6 C       48   6 C                                       1.4025906
    48   6 C       49   6 C                                       1.3677515
    41   6 C       50   6 C                                       1.4272865
    45   6 C       50   6 C                                       1.4190122
    49   6 C       50   6 C                                       1.4119379
    16  15 P       51   7 N                                       1.6613596
    42   6 C       51   7 N                                       1.4270724
    51   7 N       52   6 C                                       1.4596445
     1   6 C       53   1 H                                       1.0867749
     1   6 C       54   1 H                                       1.0875289
     1   6 C       55   1 H                                       1.0851314
     2   6 C       56   1 H                                       1.0946624
     3   6 C       57   1 H                                       1.0870253
     3   6 C       58   1 H                                       1.0867195
     3   6 C       59   1 H                                       1.0841044
     5   6 C       60   1 H                                       1.0960664
     7   6 C       61   1 H                                       1.0768105
     8   6 C       62   1 H                                       1.0781890
     9   6 C       63   1 H                                       1.0784373
    10   6 C       64   1 H                                       1.0790326
    11   6 C       65   1 H                                       1.0783171
    20   6 C       66   1 H                                       1.0786100
    21   6 C       67   1 H                                       1.0788373
    22   6 C       68   1 H                                       1.0781566
    23   6 C       69   1 H                                       1.0789286
    30   6 C       70   1 H                                       1.0874188
    30   6 C       71   1 H                                       1.0895039
    30   6 C       72   1 H                                       1.0918984
    32   6 C       73   1 H                                       1.0788843
    33   6 C       74   1 H                                       1.0791511
    35   6 C       75   1 H                                       1.0796254
    36   6 C       76   1 H                                       1.0789542
    37   6 C       77   1 H                                       1.0791201
    38   6 C       78   1 H                                       1.0793744
    43   6 C       79   1 H                                       1.0759975 (min)
    44   6 C       80   1 H                                       1.0791655
    46   6 C       81   1 H                                       1.0797212
    47   6 C       82   1 H                                       1.0789042
    48   6 C       83   1 H                                       1.0792308
    49   6 C       84   1 H                                       1.0787108
    52   6 C       85   1 H                                       1.0922255
    52   6 C       86   1 H                                       1.0895107
    52   6 C       87   1 H                                       1.0878411

 * 7 distinct bonds (by element types)

   Z      Z             #   av. dist./Å        max./Å        min./Å
   1 H    6 C          35     1.0828163     1.0960664     1.0759975
   6 C    6 C          37     1.4043238     1.5304193     1.3639950
   6 C    7 N           5     1.4477687     1.4637048     1.4270724
   6 C    9 F           6     1.3400674     1.3540422     1.3286153
   7 N   15 P           3     1.6621464     1.6741296     1.6509499
  15 P   16 S           1     2.1197928     2.1197928     2.1197928
  16 S   16 S           1     2.0537310     2.0537310     2.0537310


optimized geometry written to: xtbopt.xyz


           -------------------------------------------------
          | TOTAL ENERGY             -149.434470787155 Eh   |
          | GRADIENT NORM               0.000029556290 Eh/α |
          | HOMO-LUMO GAP               2.116978243377 eV   |
           -------------------------------------------------

------------------------------------------------------------------------
 * finished run on 2024/12/16 at 16:33:06.900     
------------------------------------------------------------------------
 total:
 * wall-time:     0 d,  0 h,  3 min, 36.736 sec
 *  cpu-time:     0 d,  0 h, 28 min, 20.088 sec
 * ratio c/w:     7.844 speedup
 SCF:
 * wall-time:     0 d,  0 h,  0 min,  2.567 sec
 *  cpu-time:     0 d,  0 h,  0 min, 20.415 sec
 * ratio c/w:     7.952 speedup
 ANC optimizer:
 * wall-time:     0 d,  0 h,  3 min, 33.966 sec
 *  cpu-time:     0 d,  0 h, 27 min, 58.146 sec
 * ratio c/w:     7.843 speedup

