      -----------------------------------------------------------      
     |                   =====================                   |     
     |                           x T B                           |     
     |                   =====================                   |     
     |                         S. Grimme                         |     
     |          Mulliken Center for Theoretical Chemistry        |     
     |                    University of Bonn                     |     
      -----------------------------------------------------------      

   * xtb version 6.7.1 (edcfbbe) compiled by 'conda@3ef47c1a292c' on 2024-11-25

   xtb is free software: you can redistribute it and/or modify it under
   the terms of the GNU Lesser General Public License as published by
   the Free Software Foundation, either version 3 of the License, or
   (at your option) any later version.
   
   xtb is distributed in the hope that it will be useful,
   but WITHOUT ANY WARRANTY; without even the implied warranty of
   MERCHANTABILITY or FITNESS FOR A PARTICULAR PURPOSE.  See the
   GNU Lesser General Public License for more details.
   
   Cite this work as:
   * C. Bannwarth, E. Caldeweyher, S. Ehlert, A. Hansen, P. Pracht,
     J. Seibert, S. Spicher, S. Grimme, WIREs Comput. Mol. Sci., 2020, 11,
     e01493. DOI: 10.1002/wcms.1493
   
   for GFN2-xTB:
   * C. Bannwarth, S. Ehlert and S. Grimme., J. Chem. Theory Comput., 2019,
     15, 1652-1671. DOI: 10.1021/acs.jctc.8b01176
   for GFN1-xTB:
   * S. Grimme, C. Bannwarth, P. Shushkov, J. Chem. Theory Comput., 2017,
     13, 1989-2009. DOI: 10.1021/acs.jctc.7b00118
   for GFN0-xTB:
   * P. Pracht, E. Caldeweyher, S. Ehlert, S. Grimme, ChemRxiv, 2019, preprint.
     DOI: 10.26434/chemrxiv.8326202.v1
   for GFN-FF:
   * S. Spicher and S. Grimme, Angew. Chem. Int. Ed., 2020, 59, 15665-15673.
     DOI: 10.1002/anie.202004239
   
   for ALPB and GBSA implicit solvation:
   * S. Ehlert, M. Stahn, S. Spicher, S. Grimme, J. Chem. Theory Comput.,
     2021, 17, 4250-4261. DOI: 10.1021/acs.jctc.1c00471
   
   for ddCOSMO and CPCM-X implicit solvation:
   * M. Stahn, S. Ehlert, S. Grimme, J. Phys. Chem. A,
     2023, XX, XXXX-XXXX. DOI: 10.1021/acs.jpca.3c04382
   
   for DFT-D4:
   * E. Caldeweyher, C. Bannwarth and S. Grimme, J. Chem. Phys., 2017,
     147, 034112. DOI: 10.1063/1.4993215
   * E. Caldeweyher, S. Ehlert, A. Hansen, H. Neugebauer, S. Spicher,
     C. Bannwarth and S. Grimme, J. Chem. Phys., 2019, 150, 154122.
     DOI: 10.1063/1.5090222
   * E. Caldeweyher, J.-M. Mewes, S. Ehlert and S. Grimme, Phys. Chem. Chem. Phys.
     2020, 22, 8499-8512. DOI: 10.1039/D0CP00502A
   
   for sTDA-xTB:
   * S. Grimme and C. Bannwarth, J. Chem. Phys., 2016, 145, 054103.
     DOI: 10.1063/1.4959605
   
   in the mass-spec context:
   * V. Asgeirsson, C. Bauer and S. Grimme, Chem. Sci., 2017, 8, 4879.
     DOI: 10.1039/c7sc00601b
   * J. Koopman and S. Grimme, ACS Omega 2019, 4, 12, 15120-15133.
     DOI: 10.1021/acsomega.9b02011
   
   for metadynamics refer to:
   * S. Grimme, J. Chem. Theory Comput., 2019, 155, 2847-2862
     DOI: 10.1021/acs.jctc.9b00143
   
   for SPH calculations refer to:
   * S. Spicher and S. Grimme, J. Chem. Theory Comput., 2021, 17, 1701-1714
     DOI: 10.1021/acs.jctc.0c01306
   
   for ONIOM refer to:
   * C. Plett, A. Katbashev, S. Ehlert, S. Grimme, M. Bursch,
     Phys. Chem. Chem. Phys., 2023, 25, 17860-17868. DOI: 10.1039/D3CP02178E
   
   for DIPRO refer to:
   * J. Kohn, N. Gildemeister, S. Grimme, D. Fazzi, A. Hansen,
     J. Chem. Phys., 2023, just accepted.
   
   for PTB refer to:
   * S. Grimme, M. Mueller, A. Hansen, J. Chem. Phys., 2023, 158, 124111.
     DOI: 10.1063/5.0137838
   
   with help from (in alphabetical order)
   P. Atkinson, C. Bannwarth, F. Bohle, G. Brandenburg, E. Caldeweyher
   M. Checinski, S. Dohm, S. Ehlert, S. Ehrlich, I. Gerasimov, C. Hölzer
   A. Katbashev, J. Kohn, J. Koopman, C. Lavigne, S. Lehtola, F. März, M. Müller,
   F. Musil, H. Neugebauer, J. Pisarek, C. Plett, P. Pracht, F. Pultar,
   J. Seibert, P. Shushkov, S. Spicher, M. Stahn, M. Steiner, T. Strunk,
   J. Stückrath, T. Rose, and J. Unsleber
   
 * started run on 2024/12/16 at 21:00:30.918     
   ID    Z sym.   atoms
    1    6 C      1-3, 5-7, 11-20, 22-38
    2    7 N      4
    3   15 P      8
    4   16 S      9, 10
    5    8 O      21, 39
    6    1 H      40-74

           -------------------------------------------------
          |                Calculation Setup                |
           -------------------------------------------------

          program call               : xtb --gfn2 --opt extreme -P 8 --charge 1 molecule.xyz
          hostname                   : node20
          coordinate file            : molecule.xyz
          omp threads                :                     8


           -------------------------------------------------
          |                 G F N 2 - x T B                 |
           -------------------------------------------------

        Reference                      10.1021/acs.jctc.8b01176
      * Hamiltonian:
        H0-scaling (s, p, d)           1.850000    2.230000    2.230000
        zeta-weighting                 0.500000
      * Dispersion:
        s8                             2.700000
        a1                             0.520000
        a2                             5.000000
        s9                             5.000000
      * Repulsion:
        kExp                           1.500000    1.000000
        rExp                           1.000000
      * Coulomb:
        alpha                          2.000000
        third order                    shell-resolved
        anisotropic                    true
        a3                             3.000000
        a5                             4.000000
        cn-shift                       1.200000
        cn-exp                         4.000000
        max-rad                        5.000000


          ...................................................
          :                      SETUP                      :
          :.................................................:
          :  # basis functions                 209          :
          :  # atomic orbitals                 206          :
          :  # shells                          116          :
          :  # electrons                       200          :
          :  max. iterations                   250          :
          :  Hamiltonian                  GFN2-xTB          :
          :  restarted?                      false          :
          :  GBSA solvation                  false          :
          :  PC potential                    false          :
          :  electronic temp.          300.0000000     K    :
          :  accuracy                    1.0000000          :
          :  -> integral cutoff          0.2500000E+02      :
          :  -> integral neglect         0.1000000E-07      :
          :  -> SCF convergence          0.1000000E-05 Eh   :
          :  -> wf. convergence          0.1000000E-03 e    :
          :  Broyden damping             0.4000000          :
          :  net charge                          1          :
          :  unpaired electrons                  0          :
          ...................................................

 iter      E             dE          RMSdq      gap      omega  full diag
   1   -109.7942271 -0.109794E+03  0.430E+00    2.20       0.0  T
   2   -109.9258110 -0.131584E+00  0.253E+00    2.46       1.0  T
   3   -109.9278659 -0.205483E-02  0.110E+00    2.20       1.0  T
   4   -109.9462193 -0.183535E-01  0.457E-01    1.95       1.0  T
   5   -109.9501326 -0.391331E-02  0.217E-01    2.06       1.0  T
   6   -109.9516155 -0.148286E-02  0.958E-02    2.06       1.0  T
   7   -109.9519043 -0.288817E-03  0.489E-02    2.07       1.0  T
   8   -109.9519851 -0.807706E-04  0.196E-02    2.07       1.0  T
   9   -109.9519920 -0.690630E-05  0.996E-03    2.07       1.2  T
  10   -109.9519936 -0.157363E-05  0.512E-03    2.07       2.3  T
  11   -109.9519944 -0.826762E-06  0.175E-03    2.07       6.6  T
  12   -109.9519944 -0.367447E-07  0.986E-04    2.07      11.8  T
  13   -109.9519944 -0.838679E-08  0.511E-04    2.07      22.8  T

   *** convergence criteria satisfied after 13 iterations ***

         #    Occupation            Energy/Eh            Energy/eV
      -------------------------------------------------------------
         1        2.0000           -0.8803287             -23.9550
       ...           ...                  ...                  ...
        94        2.0000           -0.5113872             -13.9156
        95        2.0000           -0.5071869             -13.8013
        96        2.0000           -0.5045058             -13.7283
        97        2.0000           -0.5017862             -13.6543
        98        2.0000           -0.4914958             -13.3743
        99        2.0000           -0.4891311             -13.3099
       100        2.0000           -0.4722204             -12.8498 (HOMO)
       101                         -0.3961793             -10.7806 (LUMO)
       102                         -0.3693372             -10.0502
       103                         -0.3580140              -9.7421
       104                         -0.3431221              -9.3368
       105                         -0.3388446              -9.2204
       ...                                ...                  ...
       206                          1.0114142              27.5220
      -------------------------------------------------------------
                  HL-Gap            0.0760411 Eh            2.0692 eV
             Fermi-level           -0.4341998 Eh          -11.8152 eV

 SCC (total)                   0 d,  0 h,  0 min,  1.998 sec
 SCC setup                      ...        0 min,  0.000 sec (  0.016%)
 Dispersion                     ...        0 min,  0.001 sec (  0.069%)
 classical contributions        ...        0 min,  0.000 sec (  0.005%)
 integral evaluation            ...        0 min,  0.007 sec (  0.367%)
 iterations                     ...        0 min,  1.860 sec ( 93.094%)
 molecular gradient             ...        0 min,  0.113 sec (  5.656%)
 printout                       ...        0 min,  0.016 sec (  0.790%)

         :::::::::::::::::::::::::::::::::::::::::::::::::::::
         ::                     SUMMARY                     ::
         :::::::::::::::::::::::::::::::::::::::::::::::::::::
         :: total energy            -108.365592260354 Eh    ::
         :: gradient norm              0.129248380904 Eh/a0 ::
         :: HOMO-LUMO gap              2.069183740576 eV    ::
         ::.................................................::
         :: SCC energy              -109.945756552144 Eh    ::
         :: -> isotropic ES            0.103296260784 Eh    ::
         :: -> anisotropic ES         -0.002237335164 Eh    ::
         :: -> anisotropic XC          0.059065414259 Eh    ::
         :: -> dispersion             -0.112329555825 Eh    ::
         :: repulsion energy           1.580164291790 Eh    ::
         :: add. restraining           0.000000000000 Eh    ::
         :: total charge               1.000000000000 e     ::
         :::::::::::::::::::::::::::::::::::::::::::::::::::::

      ----------------------------------------------------------- 
     |                   =====================                   |
     |                        A N C O P T                        |
     |                   =====================                   |
     |               Approximate Normal Coordinate               |
     |                Rational Function Optimizer                |
      ----------------------------------------------------------- 
      ----------------------------------------------------------- 
     |                   =====================                   |
     |                        A N C O P T                        |
     |                   =====================                   |
     |               Approximate Normal Coordinate               |
     |                Rational Function Optimizer                |
      ----------------------------------------------------------- 

          ...................................................
          :                      SETUP                      :
          :.................................................:
          :   optimization level           extreme          :
          :   max. optcycles                  1480          :
          :   ANC micro-cycles                  20          :
          :   degrees of freedom               216          :
          :.................................................:
          :   RF solver                   davidson          :
          :   write xtbopt.log                true          :
          :   linear?                        false          :
          :   energy convergence         0.5000000E-07 Eh   :
          :   grad. convergence          0.5000000E-04 Eh/α :
          :   maxmium RF displ.          1.0000000          :
          :   Hlow (freq-cutoff)         0.1000000E-01      :
          :   Hmax (freq-cutoff)         5.0000000          :
          :   S6 in model hess.         20.0000000          :
          ...................................................

generating ANC from exact Hessian ...
Using Lindh-Hessian (1995)
 Shifting diagonal of input Hessian by    9.9082765658844111E-003
 Lowest  eigenvalues of input Hessian
    0.000000    0.000000    0.000000    0.000000    0.000000    0.000000
    0.010000    0.010215    0.010221    0.010369    0.010396    0.010482
    0.010680    0.011098    0.011461    0.011678    0.011726    0.011943
 Highest eigenvalues
    2.002269    2.004585    2.020969    2.084373    2.116711    2.124750


........................................................................
.............................. CYCLE    1 ..............................
........................................................................

 iter      E             dE          RMSdq      gap      omega  full diag
   1   -109.9519944 -0.109952E+03  0.263E-04    2.07       0.0  T
   2   -109.9519944 -0.471445E-09  0.193E-04    2.07      60.2  T
   3   -109.9519944 -0.211770E-09  0.149E-04    2.07      77.9  T
     SCC iter.                  ...        0 min,  0.314 sec
     gradient                   ...        0 min,  0.118 sec
 * total energy  :  -108.3655923 Eh     change       -0.7462205E-08 Eh
   gradient norm :     0.1292480 Eh/α   predicted     0.0000000E+00 (-100.00%)
   displ. norm   :     0.3751920 α      lambda       -0.2320892E-01
   maximum displ.:     0.1254817 α      in ANC's #32, #78, #41, ...

........................................................................
.............................. CYCLE    2 ..............................
........................................................................

 iter      E             dE          RMSdq      gap      omega  full diag
   1   -110.0106563 -0.110011E+03  0.261E-01    2.25       0.0  T
   2   -110.0109695 -0.313191E-03  0.152E-01    2.28       1.0  T
   3   -110.0108762  0.933379E-04  0.735E-02    2.28       1.0  T
   4   -110.0110938 -0.217597E-03  0.225E-02    2.28       1.0  T
   5   -110.0111031 -0.937937E-05  0.109E-02    2.28       1.1  T
   6   -110.0111052 -0.206072E-05  0.573E-03    2.28       2.0  T
   7   -110.0111063 -0.105953E-05  0.336E-03    2.28       3.5  T
   8   -110.0111064 -0.127701E-06  0.213E-03    2.28       5.5  T
   9   -110.0111064 -0.224124E-07  0.117E-03    2.28      10.0  T
  10   -110.0111065 -0.349495E-07  0.522E-04    2.28      22.3  T
  11   -110.0111065 -0.561413E-08  0.251E-04    2.28      46.3  T
     SCC iter.                  ...        0 min,  1.513 sec
     gradient                   ...        0 min,  0.120 sec
 * total energy  :  -108.3814636 Eh     change       -0.1587137E-01 Eh
   gradient norm :     0.0626019 Eh/α   predicted    -0.1325473E-01 ( -16.49%)
   displ. norm   :     0.3603168 α      lambda       -0.8363985E-02
   maximum displ.:     0.1415912 α      in ANC's #30, #21, #35, ...

........................................................................
.............................. CYCLE    3 ..............................
........................................................................

 iter      E             dE          RMSdq      gap      omega  full diag
   1   -110.0475559 -0.110048E+03  0.151E-01    2.41       0.0  T
   2   -110.0476719 -0.115948E-03  0.874E-02    2.43       1.0  T
   3   -110.0476471  0.247188E-04  0.441E-02    2.43       1.0  T
   4   -110.0477200 -0.728440E-04  0.137E-02    2.44       1.0  T
   5   -110.0477226 -0.264957E-05  0.558E-03    2.43       2.1  T
   6   -110.0477231 -0.476990E-06  0.281E-03    2.43       4.1  T
   7   -110.0477233 -0.206656E-06  0.144E-03    2.43       8.1  T
   8   -110.0477234 -0.400373E-07  0.740E-04    2.43      15.7  T
   9   -110.0477234 -0.765108E-08  0.340E-04    2.43      34.2  T
     SCC iter.                  ...        0 min,  1.290 sec
     gradient                   ...        0 min,  0.118 sec
 * total energy  :  -108.3862987 Eh     change       -0.4835073E-02 Eh
   gradient norm :     0.0271358 Eh/α   predicted    -0.4724943E-02 (  -2.28%)
   displ. norm   :     0.3238244 α      lambda       -0.2550520E-02
   maximum displ.:     0.1110937 α      in ANC's #16, #13, #14, ...

........................................................................
.............................. CYCLE    4 ..............................
........................................................................

 iter      E             dE          RMSdq      gap      omega  full diag
   1   -110.0514627 -0.110051E+03  0.143E-01    2.45       0.0  T
   2   -110.0515008 -0.381722E-04  0.813E-02    2.46       1.0  T
   3   -110.0514910  0.979808E-05  0.241E-02    2.45       1.0  T
   4   -110.0515043 -0.132648E-04  0.101E-02    2.46       1.2  T
   5   -110.0515078 -0.354595E-05  0.510E-03    2.46       2.3  T
   6   -110.0515082 -0.326465E-06  0.288E-03    2.46       4.0  T
   7   -110.0515083 -0.152113E-06  0.179E-03    2.46       6.5  T
   8   -110.0515084 -0.393063E-07  0.956E-04    2.46      12.2  T
   9   -110.0515084 -0.847785E-08  0.373E-04    2.46      31.1  T
     SCC iter.                  ...        0 min,  1.239 sec
     gradient                   ...        0 min,  0.113 sec
 * total energy  :  -108.3878775 Eh     change       -0.1578819E-02 Eh
   gradient norm :     0.0162640 Eh/α   predicted    -0.1408989E-02 ( -10.76%)
   displ. norm   :     0.3626170 α      lambda       -0.1544493E-02
   maximum displ.:     0.1252928 α      in ANC's #13, #15, #8, ...

........................................................................
.............................. CYCLE    5 ..............................
........................................................................

 iter      E             dE          RMSdq      gap      omega  full diag
   1   -110.0498579 -0.110050E+03  0.885E-02    2.46       0.0  T
   2   -110.0498756 -0.176236E-04  0.462E-02    2.46       1.0  T
   3   -110.0498737  0.181024E-05  0.136E-02    2.46       1.0  T
   4   -110.0498753 -0.159981E-05  0.851E-03    2.46       1.4  T
   5   -110.0498785 -0.312611E-05  0.295E-03    2.46       3.9  T
   6   -110.0498787 -0.270116E-06  0.142E-03    2.46       8.2  T
   7   -110.0498788 -0.569312E-07  0.717E-04    2.46      16.2  T
   8   -110.0498788 -0.872788E-08  0.388E-04    2.46      30.0  T
     SCC iter.                  ...        0 min,  1.110 sec
     gradient                   ...        0 min,  0.113 sec
 * total energy  :  -108.3889456 Eh     change       -0.1068034E-02 Eh
   gradient norm :     0.0089940 Eh/α   predicted    -0.8737926E-03 ( -18.19%)
   displ. norm   :     0.3585914 α      lambda       -0.8243595E-03
   maximum displ.:     0.1347242 α      in ANC's #15, #13, #8, ...

........................................................................
.............................. CYCLE    6 ..............................
........................................................................

 iter      E             dE          RMSdq      gap      omega  full diag
   1   -110.0483048 -0.110048E+03  0.733E-02    2.45       0.0  T
   2   -110.0483126 -0.780069E-05  0.400E-02    2.45       1.0  T
   3   -110.0483084  0.424242E-05  0.112E-02    2.45       1.0  T
   4   -110.0483134 -0.499749E-05  0.587E-03    2.45       2.0  T
   5   -110.0483145 -0.114349E-05  0.218E-03    2.45       5.3  T
   6   -110.0483148 -0.218075E-06  0.955E-04    2.45      12.2  T
   7   -110.0483148 -0.309069E-07  0.466E-04    2.45      24.9  T
     SCC iter.                  ...        0 min,  0.783 sec
     gradient                   ...        0 min,  0.113 sec
 * total energy  :  -108.3895511 Eh     change       -0.6055373E-03 Eh
   gradient norm :     0.0094595 Eh/α   predicted    -0.4651945E-03 ( -23.18%)
   displ. norm   :     0.3981824 α      lambda       -0.6317345E-03
   maximum displ.:     0.1666727 α      in ANC's #8, #3, #15, ...

........................................................................
.............................. CYCLE    7 ..............................
........................................................................

 iter      E             dE          RMSdq      gap      omega  full diag
   1   -110.0477910 -0.110048E+03  0.695E-02    2.44       0.0  T
   2   -110.0477966 -0.565786E-05  0.358E-02    2.44       1.0  T
   3   -110.0477937  0.292528E-05  0.109E-02    2.44       1.1  T
   4   -110.0477970 -0.329835E-05  0.581E-03    2.43       2.0  T
   5   -110.0477980 -0.103063E-05  0.166E-03    2.44       7.0  T
   6   -110.0477982 -0.125628E-06  0.708E-04    2.44      16.4  T
   7   -110.0477982 -0.184912E-07  0.344E-04    2.44      33.8  T
     SCC iter.                  ...        0 min,  0.884 sec
     gradient                   ...        0 min,  0.113 sec
 * total energy  :  -108.3900330 Eh     change       -0.4818496E-03 Eh
   gradient norm :     0.0098882 Eh/α   predicted    -0.3659725E-03 ( -24.05%)
   displ. norm   :     0.4176544 α      lambda       -0.5386031E-03
   maximum displ.:     0.1853670 α      in ANC's #3, #8, #13, ...

........................................................................
.............................. CYCLE    8 ..............................
........................................................................

 iter      E             dE          RMSdq      gap      omega  full diag
   1   -110.0486518 -0.110049E+03  0.671E-02    2.44       0.0  T
   2   -110.0486561 -0.430999E-05  0.362E-02    2.43       1.0  T
   3   -110.0486518  0.431360E-05  0.108E-02    2.43       1.1  T
   4   -110.0486566 -0.480838E-05  0.496E-03    2.43       2.3  T
   5   -110.0486575 -0.864326E-06  0.132E-03    2.43       8.8  T
   6   -110.0486575 -0.450364E-07  0.656E-04    2.43      17.7  T
   7   -110.0486576 -0.126980E-07  0.379E-04    2.43      30.6  T
     SCC iter.                  ...        0 min,  0.908 sec
     gradient                   ...        0 min,  0.115 sec
 * total energy  :  -108.3904389 Eh     change       -0.4059485E-03 Eh
   gradient norm :     0.0072895 Eh/α   predicted    -0.3162873E-03 ( -22.09%)
   displ. norm   :     0.3704053 α      lambda       -0.3801414E-03
   maximum displ.:     0.1826371 α      in ANC's #3, #8, #2, ...

........................................................................
.............................. CYCLE    9 ..............................
........................................................................

 iter      E             dE          RMSdq      gap      omega  full diag
   1   -110.0501828 -0.110050E+03  0.574E-02    2.44       0.0  T
   2   -110.0501871 -0.438847E-05  0.310E-02    2.43       1.0  T
   3   -110.0501847  0.245919E-05  0.968E-03    2.43       1.2  T
   4   -110.0501872 -0.251518E-05  0.482E-03    2.43       2.4  T
   5   -110.0501882 -0.101473E-05  0.136E-03    2.43       8.5  T
   6   -110.0501883 -0.497712E-07  0.513E-04    2.43      22.6  T
   7   -110.0501883 -0.760227E-08  0.299E-04    2.43      38.9  T
     SCC iter.                  ...        0 min,  0.902 sec
     gradient                   ...        0 min,  0.123 sec
 * total energy  :  -108.3907188 Eh     change       -0.2799042E-03 Eh
   gradient norm :     0.0044060 Eh/α   predicted    -0.2161740E-03 ( -22.77%)
   displ. norm   :     0.2985463 α      lambda       -0.2413065E-03
   maximum displ.:     0.1594684 α      in ANC's #3, #8, #2, ...

........................................................................
.............................. CYCLE   10 ..............................
........................................................................

 iter      E             dE          RMSdq      gap      omega  full diag
   1   -110.0516913 -0.110052E+03  0.450E-02    2.44       0.0  T
   2   -110.0516931 -0.181071E-05  0.243E-02    2.44       1.0  T
   3   -110.0516920  0.105875E-05  0.652E-03    2.44       1.8  T
   4   -110.0516931 -0.104495E-05  0.339E-03    2.44       3.4  T
   5   -110.0516936 -0.488350E-06  0.958E-04    2.44      12.1  T
   6   -110.0516936 -0.237990E-07  0.420E-04    2.44      27.7  T
     SCC iter.                  ...        0 min,  0.864 sec
     gradient                   ...        0 min,  0.113 sec
 * total energy  :  -108.3909010 Eh     change       -0.1821887E-03 Eh
   gradient norm :     0.0041299 Eh/α   predicted    -0.1314129E-03 ( -27.87%)
   displ. norm   :     0.2577244 α      lambda       -0.1861148E-03
   maximum displ.:     0.1400920 α      in ANC's #3, #2, #8, ...

........................................................................
.............................. CYCLE   11 ..............................
........................................................................

 iter      E             dE          RMSdq      gap      omega  full diag
   1   -110.0525340 -0.110053E+03  0.343E-02    2.44       0.0  T
   2   -110.0525351 -0.102928E-05  0.186E-02    2.44       1.0  T
   3   -110.0525347  0.393663E-06  0.477E-03    2.44       2.4  T
   4   -110.0525351 -0.403955E-06  0.247E-03    2.44       4.7  T
   5   -110.0525353 -0.211535E-06  0.813E-04    2.44      14.3  T
   6   -110.0525353 -0.210235E-07  0.366E-04    2.44      31.8  T
     SCC iter.                  ...        0 min,  0.761 sec
     gradient                   ...        0 min,  0.121 sec
 * total energy  :  -108.3910457 Eh     change       -0.1446756E-03 Eh
   gradient norm :     0.0044529 Eh/α   predicted    -0.9923886E-04 ( -31.41%)
   displ. norm   :     0.2487935 α      lambda       -0.1631005E-03
   maximum displ.:     0.1378099 α      in ANC's #2, #3, #8, ...

........................................................................
.............................. CYCLE   12 ..............................
........................................................................

 iter      E             dE          RMSdq      gap      omega  full diag
   1   -110.0526945 -0.110053E+03  0.383E-02    2.44       0.0  T
   2   -110.0526957 -0.118297E-05  0.193E-02    2.45       1.0  T
   3   -110.0526954  0.257206E-06  0.489E-03    2.45       2.4  T
   4   -110.0526957 -0.313586E-06  0.268E-03    2.45       4.3  T
   5   -110.0526959 -0.207934E-06  0.657E-04    2.45      17.7  T
   6   -110.0526960 -0.190281E-07  0.330E-04    2.45      35.3  T
     SCC iter.                  ...        0 min,  0.717 sec
     gradient                   ...        0 min,  0.113 sec
 * total energy  :  -108.3911699 Eh     change       -0.1242065E-03 Eh
   gradient norm :     0.0039515 Eh/α   predicted    -0.8659852E-04 ( -30.28%)
   displ. norm   :     0.2171878 α      lambda       -0.1200224E-03
   maximum displ.:     0.1256544 α      in ANC's #2, #3, #15, ...

........................................................................
.............................. CYCLE   13 ..............................
........................................................................

 iter      E             dE          RMSdq      gap      omega  full diag
   1   -110.0522598 -0.110052E+03  0.343E-02    2.45       0.0  T
   2   -110.0522608 -0.920068E-06  0.179E-02    2.45       1.0  T
   3   -110.0522606  0.210013E-06  0.424E-03    2.45       2.7  T
   4   -110.0522608 -0.228686E-06  0.226E-03    2.45       5.1  T
   5   -110.0522610 -0.175723E-06  0.567E-04    2.45      20.5  T
   6   -110.0522610 -0.130808E-07  0.261E-04    2.45      44.6  T
     SCC iter.                  ...        0 min,  0.804 sec
     gradient                   ...        0 min,  0.117 sec
 * total energy  :  -108.3912602 Eh     change       -0.9032148E-04 Eh
   gradient norm :     0.0029665 Eh/α   predicted    -0.6284288E-04 ( -30.42%)
   displ. norm   :     0.1814202 α      lambda       -0.8487173E-04
   maximum displ.:     0.1082969 α      in ANC's #2, #3, #4, ...

........................................................................
.............................. CYCLE   14 ..............................
........................................................................

 iter      E             dE          RMSdq      gap      omega  full diag
   1   -110.0517925 -0.110052E+03  0.356E-02    2.45       0.0  T
   2   -110.0517935 -0.985453E-06  0.181E-02    2.45       1.0  T
   3   -110.0517934  0.255312E-07  0.430E-03    2.45       2.7  T
   4   -110.0517934 -0.110995E-07  0.218E-03    2.45       5.3  T
   5   -110.0517936 -0.180162E-06  0.611E-04    2.45      19.0  T
   6   -110.0517936 -0.195606E-07  0.230E-04    2.45      50.5  T
     SCC iter.                  ...        0 min,  0.850 sec
     gradient                   ...        0 min,  0.114 sec
 * total energy  :  -108.3913247 Eh     change       -0.6448492E-04 Eh
   gradient norm :     0.0022814 Eh/α   predicted    -0.4383516E-04 ( -32.02%)
   displ. norm   :     0.1615600 α      lambda       -0.6546005E-04
   maximum displ.:     0.0966741 α      in ANC's #2, #3, #4, ...

........................................................................
.............................. CYCLE   15 ..............................
........................................................................

 iter      E             dE          RMSdq      gap      omega  full diag
   1   -110.0514460 -0.110051E+03  0.317E-02    2.46       0.0  T
   2   -110.0514465 -0.493343E-06  0.171E-02    2.46       1.0  T
   3   -110.0514465  0.236298E-07  0.330E-03    2.46       3.5  T
   4   -110.0514464  0.552851E-07  0.173E-03    2.46       6.7  T
   5   -110.0514466 -0.171354E-06  0.413E-04    2.46      28.1  T
   6   -110.0514466 -0.781256E-08  0.184E-04    2.46      63.1  T
     SCC iter.                  ...        0 min,  0.762 sec
     gradient                   ...        0 min,  0.117 sec
 * total energy  :  -108.3913748 Eh     change       -0.5016495E-04 Eh
   gradient norm :     0.0022003 Eh/α   predicted    -0.3358539E-04 ( -33.05%)
   displ. norm   :     0.1575549 α      lambda       -0.5468579E-04
   maximum displ.:     0.0939003 α      in ANC's #2, #3, #4, ...

........................................................................
.............................. CYCLE   16 ..............................
........................................................................

 iter      E             dE          RMSdq      gap      omega  full diag
   1   -110.0513099 -0.110051E+03  0.319E-02    2.46       0.0  T
   2   -110.0513104 -0.425719E-06  0.175E-02    2.46       1.0  T
   3   -110.0513103  0.827291E-07  0.321E-03    2.46       3.6  T
   4   -110.0513103  0.470443E-08  0.172E-03    2.46       6.7  T
   5   -110.0513105 -0.177879E-06  0.295E-04    2.46      39.4  T
   6   -110.0513105 -0.273033E-08  0.148E-04    2.46      78.3  T
     SCC iter.                  ...        0 min,  0.830 sec
     gradient                   ...        0 min,  0.117 sec
 * total energy  :  -108.3914170 Eh     change       -0.4218270E-04 Eh
   gradient norm :     0.0023055 Eh/α   predicted    -0.2802569E-04 ( -33.56%)
   displ. norm   :     0.1599764 α      lambda       -0.4777928E-04
   maximum displ.:     0.0939286 α      in ANC's #2, #3, #4, ...

........................................................................
.............................. CYCLE   17 ..............................
........................................................................

 iter      E             dE          RMSdq      gap      omega  full diag
   1   -110.0513920 -0.110051E+03  0.311E-02    2.46       0.0  T
   2   -110.0513924 -0.358817E-06  0.176E-02    2.46       1.0  T
   3   -110.0513921  0.307901E-06  0.310E-03    2.46       3.7  T
   4   -110.0513923 -0.270281E-06  0.158E-03    2.46       7.4  T
   5   -110.0513925 -0.136828E-06  0.318E-04    2.46      36.5  T
   6   -110.0513925 -0.274430E-08  0.149E-04    2.46      78.0  T
     SCC iter.                  ...        0 min,  0.625 sec
     gradient                   ...        0 min,  0.113 sec
 * total energy  :  -108.3914538 Eh     change       -0.3672653E-04 Eh
   gradient norm :     0.0021824 Eh/α   predicted    -0.2450264E-04 ( -33.28%)
   displ. norm   :     0.1628627 α      lambda       -0.4062291E-04
   maximum displ.:     0.0946271 α      in ANC's #2, #3, #4, ...

........................................................................
.............................. CYCLE   18 ..............................
........................................................................

 iter      E             dE          RMSdq      gap      omega  full diag
   1   -110.0515663 -0.110052E+03  0.313E-02    2.46       0.0  T
   2   -110.0515666 -0.382733E-06  0.177E-02    2.46       1.0  T
   3   -110.0515661  0.591109E-06  0.358E-03    2.46       3.2  T
   4   -110.0515667 -0.591935E-06  0.162E-03    2.46       7.2  T
   5   -110.0515668 -0.131366E-06  0.398E-04    2.46      29.2  T
   6   -110.0515668 -0.472170E-08  0.194E-04    2.46      60.0  T
     SCC iter.                  ...        0 min,  0.758 sec
     gradient                   ...        0 min,  0.113 sec
 * total energy  :  -108.3914839 Eh     change       -0.3015427E-04 Eh
   gradient norm :     0.0018136 Eh/α   predicted    -0.2085107E-04 ( -30.85%)
   displ. norm   :     0.2109623 α      lambda       -0.2755277E-04
   maximum displ.:     0.1214495 α      in ANC's #2, #3, #4, ...

........................................................................
.............................. CYCLE   19 ..............................
........................................................................

 iter      E             dE          RMSdq      gap      omega  full diag
   1   -110.0517750 -0.110052E+03  0.388E-02    2.46       0.0  T
   2   -110.0517756 -0.594989E-06  0.219E-02    2.46       1.0  T
   3   -110.0517742  0.134529E-05  0.505E-03    2.46       2.3  T
   4   -110.0517756 -0.141896E-05  0.204E-03    2.46       5.7  T
   5   -110.0517758 -0.185582E-06  0.541E-04    2.46      21.5  T
   6   -110.0517758 -0.973561E-08  0.274E-04    2.46      42.5  T
     SCC iter.                  ...        0 min,  0.680 sec
     gradient                   ...        0 min,  0.112 sec
 * total energy  :  -108.3915079 Eh     change       -0.2394785E-04 Eh
   gradient norm :     0.0014867 Eh/α   predicted    -0.1405120E-04 ( -41.33%)
   displ. norm   :     0.0558813 α      lambda       -0.9167637E-05
   maximum displ.:     0.0260262 α      in ANC's #7, #2, #5, ...

........................................................................
.............................. CYCLE   20 ..............................
........................................................................

 iter      E             dE          RMSdq      gap      omega  full diag
   1   -110.0519662 -0.110052E+03  0.999E-03    2.46       0.0  T
   2   -110.0519663 -0.567979E-07  0.559E-03    2.46       2.1  T
   3   -110.0519661  0.173057E-06  0.182E-03    2.46       6.4  T
   4   -110.0519663 -0.188813E-06  0.698E-04    2.46      16.7  T
   5   -110.0519663 -0.166456E-07  0.242E-04    2.46      48.0  T
     SCC iter.                  ...        0 min,  0.602 sec
     gradient                   ...        0 min,  0.117 sec
 * total energy  :  -108.3915186 Eh     change       -0.1078794E-04 Eh
   gradient norm :     0.0009302 Eh/α   predicted    -0.4593441E-05 ( -57.42%)
   displ. norm   :     0.0764483 α      lambda       -0.9704984E-05
   maximum displ.:     0.0413457 α      in ANC's #7, #2, #5, ...
 * RMSD in coord.:     0.4070528 α      energy gain  -0.2592638E-01 Eh

generating ANC from exact Hessian ...
Using Lindh-Hessian (1995)
 Shifting diagonal of input Hessian by    9.8955359081881276E-003
 Lowest  eigenvalues of input Hessian
    0.000000    0.000000    0.000000    0.000000    0.000000    0.000000
    0.010000    0.010261    0.010279    0.010398    0.010513    0.010640
    0.010943    0.011410    0.011735    0.011853    0.011945    0.012086
 Highest eigenvalues
    2.029468    2.038434    2.049880    2.118571    2.129231    2.269821


........................................................................
.............................. CYCLE   21 ..............................
........................................................................

 iter      E             dE          RMSdq      gap      omega  full diag
   1   -110.0517598 -0.110052E+03  0.144E-02    2.46       0.0  T
   2   -110.0517599 -0.124103E-06  0.798E-03    2.46       1.5  T
   3   -110.0517596  0.253123E-06  0.242E-03    2.46       4.8  T
   4   -110.0517599 -0.266524E-06  0.102E-03    2.46      11.4  T
   5   -110.0517599 -0.396979E-07  0.326E-04    2.46      35.6  T
   6   -110.0517599 -0.468604E-08  0.131E-04    2.46      88.7  T
     SCC iter.                  ...        0 min,  0.829 sec
     gradient                   ...        0 min,  0.113 sec
 * total energy  :  -108.3915286 Eh     change       -0.9912652E-05 Eh
   gradient norm :     0.0006585 Eh/α   predicted     0.0000000E+00 (-100.00%)
   displ. norm   :     0.0177012 α      lambda       -0.2129229E-05
   maximum displ.:     0.0093410 α      in ANC's #4, #7, #25, ...

........................................................................
.............................. CYCLE   22 ..............................
........................................................................

 iter      E             dE          RMSdq      gap      omega  full diag
   1   -110.0518362 -0.110052E+03  0.386E-03    2.46       0.0  T
   2   -110.0518362 -0.928249E-08  0.219E-03    2.46       5.3  T
   3   -110.0518362  0.199030E-07  0.633E-04    2.46      18.4  T
   4   -110.0518362 -0.224774E-07  0.217E-04    2.46      53.6  T
     SCC iter.                  ...        0 min,  0.455 sec
     gradient                   ...        0 min,  0.117 sec
 * total energy  :  -108.3915315 Eh     change       -0.2987048E-05 Eh
   gradient norm :     0.0003093 Eh/α   predicted    -0.1174567E-05 ( -60.68%)
   displ. norm   :     0.0591669 α      lambda       -0.5559121E-05
   maximum displ.:     0.0330262 α      in ANC's #4, #7, #25, ...

........................................................................
.............................. CYCLE   23 ..............................
........................................................................

 iter      E             dE          RMSdq      gap      omega  full diag
   1   -110.0517944 -0.110052E+03  0.140E-02    2.46       0.0  T
   2   -110.0517945 -0.107882E-06  0.765E-03    2.46       1.5  T
   3   -110.0517943  0.206460E-06  0.228E-03    2.46       5.1  T
   4   -110.0517945 -0.208270E-06  0.106E-03    2.46      11.0  T
   5   -110.0517946 -0.450465E-07  0.232E-04    2.46      50.1  T
   6   -110.0517946 -0.214393E-08  0.998E-05    2.46     116.5  T
     SCC iter.                  ...        0 min,  0.828 sec
     gradient                   ...        0 min,  0.113 sec
 * total energy  :  -108.3915365 Eh     change       -0.4991454E-05 Eh
   gradient norm :     0.0006427 Eh/α   predicted    -0.2784111E-05 ( -44.22%)
   displ. norm   :     0.0563605 α      lambda       -0.3987248E-05
   maximum displ.:     0.0294996 α      in ANC's #4, #7, #2, ...

........................................................................
.............................. CYCLE   24 ..............................
........................................................................

 iter      E             dE          RMSdq      gap      omega  full diag
   1   -110.0517922 -0.110052E+03  0.133E-02    2.46       0.0  T
   2   -110.0517924 -0.179698E-06  0.756E-03    2.46       1.5  T
   3   -110.0517922  0.126780E-06  0.194E-03    2.46       6.0  T
   4   -110.0517923 -0.954399E-07  0.109E-03    2.46      10.6  T
   5   -110.0517924 -0.671821E-07  0.380E-04    2.46      30.6  T
   6   -110.0517924 -0.198526E-08  0.176E-04    2.46      66.2  T
     SCC iter.                  ...        0 min,  0.701 sec
     gradient                   ...        0 min,  0.113 sec
 * total energy  :  -108.3915382 Eh     change       -0.1675349E-05 Eh
   gradient norm :     0.0009219 Eh/α   predicted    -0.1999064E-05 (  19.32%)
   displ. norm   :     0.0257305 α      lambda       -0.2950591E-05
   maximum displ.:     0.0160430 α      in ANC's #4, #7, #8, ...

........................................................................
.............................. CYCLE   25 ..............................
........................................................................

 iter      E             dE          RMSdq      gap      omega  full diag
   1   -110.0519393 -0.110052E+03  0.726E-03    2.46       0.0  T
   2   -110.0519394 -0.676909E-07  0.375E-03    2.46       3.1  T
   3   -110.0519394  0.342289E-07  0.120E-03    2.46       9.7  T
   4   -110.0519394 -0.286029E-07  0.663E-04    2.46      17.5  T
   5   -110.0519394 -0.205027E-07  0.215E-04    2.46      54.1  T
     SCC iter.                  ...        0 min,  0.621 sec
     gradient                   ...        0 min,  0.113 sec
 * total energy  :  -108.3915414 Eh     change       -0.3200418E-05 Eh
   gradient norm :     0.0005888 Eh/α   predicted    -0.1477023E-05 ( -53.85%)
   displ. norm   :     0.0346429 α      lambda       -0.2695830E-05
   maximum displ.:     0.0203985 α      in ANC's #4, #7, #2, ...

........................................................................
.............................. CYCLE   26 ..............................
........................................................................

 iter      E             dE          RMSdq      gap      omega  full diag
   1   -110.0520147 -0.110052E+03  0.959E-03    2.46       0.0  T
   2   -110.0520148 -0.929633E-07  0.479E-03    2.46       2.4  T
   3   -110.0520148  0.435400E-07  0.146E-03    2.46       7.9  T
   4   -110.0520148 -0.303368E-07  0.879E-04    2.46      13.2  T
   5   -110.0520148 -0.365101E-07  0.207E-04    2.46      56.1  T
     SCC iter.                  ...        0 min,  0.515 sec
     gradient                   ...        0 min,  0.117 sec
 * total energy  :  -108.3915439 Eh     change       -0.2489738E-05 Eh
   gradient norm :     0.0002520 Eh/α   predicted    -0.1349149E-05 ( -45.81%)
   displ. norm   :     0.0447554 α      lambda       -0.1644028E-05
   maximum displ.:     0.0253798 α      in ANC's #4, #7, #3, ...

........................................................................
.............................. CYCLE   27 ..............................
........................................................................

 iter      E             dE          RMSdq      gap      omega  full diag
   1   -110.0519930 -0.110052E+03  0.885E-03    2.46       0.0  T
   2   -110.0519930 -0.263247E-07  0.507E-03    2.46       2.3  T
   3   -110.0519928  0.154139E-06  0.152E-03    2.46       7.7  T
   4   -110.0519930 -0.172395E-06  0.427E-04    2.46      27.2  T
   5   -110.0519930 -0.397651E-08  0.171E-04    2.46      68.1  T
     SCC iter.                  ...        0 min,  0.573 sec
     gradient                   ...        0 min,  0.115 sec
 * total energy  :  -108.3915456 Eh     change       -0.1652408E-05 Eh
   gradient norm :     0.0003539 Eh/α   predicted    -0.8231816E-06 ( -50.18%)
   displ. norm   :     0.0500032 α      lambda       -0.1250657E-05
   maximum displ.:     0.0290668 α      in ANC's #4, #7, #3, ...

........................................................................
.............................. CYCLE   28 ..............................
........................................................................

 iter      E             dE          RMSdq      gap      omega  full diag
   1   -110.0519812 -0.110052E+03  0.909E-03    2.46       0.0  T
   2   -110.0519812 -0.238471E-07  0.529E-03    2.46       2.2  T
   3   -110.0519810  0.171176E-06  0.156E-03    2.46       7.5  T
   4   -110.0519812 -0.190256E-06  0.310E-04    2.46      37.5  T
   5   -110.0519812 -0.235843E-08  0.132E-04    2.46      88.3  T
     SCC iter.                  ...        0 min,  0.467 sec
     gradient                   ...        0 min,  0.113 sec
 * total energy  :  -108.3915469 Eh     change       -0.1360118E-05 Eh
   gradient norm :     0.0003534 Eh/α   predicted    -0.6283289E-06 ( -53.80%)
   displ. norm   :     0.0338002 α      lambda       -0.8436729E-06
   maximum displ.:     0.0197033 α      in ANC's #4, #3, #7, ...

........................................................................
.............................. CYCLE   29 ..............................
........................................................................

 iter      E             dE          RMSdq      gap      omega  full diag
   1   -110.0519971 -0.110052E+03  0.583E-03    2.46       0.0  T
   2   -110.0519971 -0.115041E-07  0.340E-03    2.46       3.4  T
   3   -110.0519970  0.683488E-07  0.997E-04    2.46      11.7  T
   4   -110.0519971 -0.762473E-07  0.199E-04    2.46      58.4  T
     SCC iter.                  ...        0 min,  0.511 sec
     gradient                   ...        0 min,  0.115 sec
 * total energy  :  -108.3915479 Eh     change       -0.9807608E-06 Eh
   gradient norm :     0.0001835 Eh/α   predicted    -0.4244710E-06 ( -56.72%)
   displ. norm   :     0.0284567 α      lambda       -0.7595887E-06
   maximum displ.:     0.0169006 α      in ANC's #3, #4, #2, ...

........................................................................
.............................. CYCLE   30 ..............................
........................................................................

 iter      E             dE          RMSdq      gap      omega  full diag
   1   -110.0519971 -0.110052E+03  0.460E-03    2.46       0.0  T
   2   -110.0519971 -0.590640E-08  0.267E-03    2.46       4.4  T
   3   -110.0519971  0.274077E-07  0.652E-04    2.46      17.8  T
   4   -110.0519971 -0.302619E-07  0.166E-04    2.46      70.2  T
     SCC iter.                  ...        0 min,  0.419 sec
     gradient                   ...        0 min,  0.128 sec
 * total energy  :  -108.3915488 Eh     change       -0.8958138E-06 Eh
   gradient norm :     0.0001443 Eh/α   predicted    -0.3805424E-06 ( -57.52%)
   displ. norm   :     0.0285340 α      lambda       -0.7078481E-06
   maximum displ.:     0.0188384 α      in ANC's #3, #4, #2, ...

........................................................................
.............................. CYCLE   31 ..............................
........................................................................

 iter      E             dE          RMSdq      gap      omega  full diag
   1   -110.0519976 -0.110052E+03  0.430E-03    2.46       0.0  T
   2   -110.0519976 -0.414293E-08  0.248E-03    2.46       4.7  T
   3   -110.0519976  0.105222E-07  0.422E-04    2.46      27.5  T
   4   -110.0519976 -0.115915E-07  0.167E-04    2.46      69.7  T
     SCC iter.                  ...        0 min,  0.408 sec
     gradient                   ...        0 min,  0.115 sec
 * total energy  :  -108.3915496 Eh     change       -0.8586508E-06 Eh
   gradient norm :     0.0002168 Eh/α   predicted    -0.3574358E-06 ( -58.37%)
   displ. norm   :     0.0311129 α      lambda       -0.6713468E-06
   maximum displ.:     0.0208966 α      in ANC's #3, #4, #2, ...

........................................................................
.............................. CYCLE   32 ..............................
........................................................................

 iter      E             dE          RMSdq      gap      omega  full diag
   1   -110.0520053 -0.110052E+03  0.424E-03    2.46       0.0  T
   2   -110.0520053 -0.498027E-08  0.242E-03    2.46       4.8  T
   3   -110.0520053  0.560496E-08  0.372E-04    2.46      31.3  T
   4   -110.0520053 -0.552019E-08  0.192E-04    2.46      60.7  T
     SCC iter.                  ...        0 min,  0.450 sec
     gradient                   ...        0 min,  0.113 sec
 * total energy  :  -108.3915505 Eh     change       -0.8369656E-06 Eh
   gradient norm :     0.0002150 Eh/α   predicted    -0.3366300E-06 ( -59.78%)
   displ. norm   :     0.0343340 α      lambda       -0.6948268E-06
   maximum displ.:     0.0230571 α      in ANC's #3, #4, #2, ...

........................................................................
.............................. CYCLE   33 ..............................
........................................................................

 iter      E             dE          RMSdq      gap      omega  full diag
   1   -110.0520102 -0.110052E+03  0.424E-03    2.46       0.0  T
   2   -110.0520102 -0.711609E-08  0.239E-03    2.46       4.9  T
   3   -110.0520102  0.488130E-08  0.419E-04    2.46      27.7  T
   4   -110.0520102 -0.442016E-08  0.227E-04    2.46      51.2  T
     SCC iter.                  ...        0 min,  0.453 sec
     gradient                   ...        0 min,  0.110 sec
 * total energy  :  -108.3915514 Eh     change       -0.8781610E-06 Eh
   gradient norm :     0.0001526 Eh/α   predicted    -0.3525102E-06 ( -59.86%)
   displ. norm   :     0.0430855 α      lambda       -0.7880272E-06
   maximum displ.:     0.0279703 α      in ANC's #3, #4, #2, ...

........................................................................
.............................. CYCLE   34 ..............................
........................................................................

 iter      E             dE          RMSdq      gap      omega  full diag
   1   -110.0520267 -0.110052E+03  0.497E-03    2.46       0.0  T
   2   -110.0520267 -0.112374E-07  0.277E-03    2.46       4.2  T
   3   -110.0520267  0.825740E-08  0.558E-04    2.46      20.8  T
   4   -110.0520267 -0.714955E-08  0.305E-04    2.46      38.1  T
     SCC iter.                  ...        0 min,  0.444 sec
     gradient                   ...        0 min,  0.113 sec
 * total energy  :  -108.3915523 Eh     change       -0.9520396E-06 Eh
   gradient norm :     0.0001131 Eh/α   predicted    -0.3958008E-06 ( -58.43%)
   displ. norm   :     0.0534265 α      lambda       -0.7562172E-06
   maximum displ.:     0.0334247 α      in ANC's #3, #4, #2, ...

........................................................................
.............................. CYCLE   35 ..............................
........................................................................

 iter      E             dE          RMSdq      gap      omega  full diag
   1   -110.0520322 -0.110052E+03  0.604E-03    2.46       0.0  T
   2   -110.0520322 -0.160060E-07  0.337E-03    2.46       3.5  T
   3   -110.0520322  0.980825E-08  0.649E-04    2.46      17.9  T
   4   -110.0520322 -0.656337E-08  0.385E-04    2.46      30.2  T
     SCC iter.                  ...        0 min,  0.405 sec
     gradient                   ...        0 min,  0.130 sec
 * total energy  :  -108.3915532 Eh     change       -0.8400363E-06 Eh
   gradient norm :     0.0001517 Eh/α   predicted    -0.3810664E-06 ( -54.64%)
   displ. norm   :     0.0508668 α      lambda       -0.5023659E-06
   maximum displ.:     0.0307948 α      in ANC's #3, #4, #2, ...

........................................................................
.............................. CYCLE   36 ..............................
........................................................................

 iter      E             dE          RMSdq      gap      omega  full diag
   1   -110.0520416 -0.110052E+03  0.576E-03    2.46       0.0  T
   2   -110.0520416 -0.129249E-07  0.323E-03    2.46       3.6  T
   3   -110.0520416  0.594089E-08  0.563E-04    2.46      20.7  T
   4   -110.0520416 -0.339070E-08  0.339E-04    2.46      34.3  T
     SCC iter.                  ...        0 min,  0.486 sec
     gradient                   ...        0 min,  0.117 sec
 * total energy  :  -108.3915537 Eh     change       -0.5314187E-06 Eh
   gradient norm :     0.0001723 Eh/α   predicted    -0.2551715E-06 ( -51.98%)
   displ. norm   :     0.0397597 α      lambda       -0.3514411E-06
   maximum displ.:     0.0223230 α      in ANC's #4, #3, #2, ...

........................................................................
.............................. CYCLE   37 ..............................
........................................................................

 iter      E             dE          RMSdq      gap      omega  full diag
   1   -110.0520645 -0.110052E+03  0.467E-03    2.46       0.0  T
   2   -110.0520645 -0.715177E-08  0.265E-03    2.46       4.4  T
   3   -110.0520645  0.454122E-08  0.408E-04    2.46      28.5  T
   4   -110.0520645 -0.371621E-08  0.234E-04    2.46      49.7  T
     SCC iter.                  ...        0 min,  0.390 sec
     gradient                   ...        0 min,  0.111 sec
 * total energy  :  -108.3915541 Eh     change       -0.4075683E-06 Eh
   gradient norm :     0.0001436 Eh/α   predicted    -0.1779973E-06 ( -56.33%)
   displ. norm   :     0.0428887 α      lambda       -0.3980198E-06
   maximum displ.:     0.0237477 α      in ANC's #4, #3, #2, ...

........................................................................
.............................. CYCLE   38 ..............................
........................................................................

 iter      E             dE          RMSdq      gap      omega  full diag
   1   -110.0520631 -0.110052E+03  0.525E-03    2.46       0.0  T
   2   -110.0520631 -0.885179E-08  0.301E-03    2.46       3.9  T
   3   -110.0520631  0.746115E-08  0.460E-04    2.46      25.3  T
   4   -110.0520631 -0.753204E-08  0.247E-04    2.46      47.0  T
     SCC iter.                  ...        0 min,  0.421 sec
     gradient                   ...        0 min,  0.115 sec
 * total energy  :  -108.3915546 Eh     change       -0.4605396E-06 Eh
   gradient norm :     0.0001094 Eh/α   predicted    -0.2039706E-06 ( -55.71%)
   displ. norm   :     0.0282244 α      lambda       -0.3297058E-06
   maximum displ.:     0.0136730 α      in ANC's #4, #3, #1, ...

........................................................................
.............................. CYCLE   39 ..............................
........................................................................

 iter      E             dE          RMSdq      gap      omega  full diag
   1   -110.0520771 -0.110052E+03  0.374E-03    2.46       0.0  T
   2   -110.0520771 -0.527567E-08  0.213E-03    2.46       5.5  T
   3   -110.0520771  0.914761E-08  0.450E-04    2.46      25.8  T
   4   -110.0520771 -0.947576E-08  0.215E-04    2.46      54.0  T
     SCC iter.                  ...        0 min,  0.478 sec
     gradient                   ...        0 min,  0.115 sec
 * total energy  :  -108.3915549 Eh     change       -0.3817126E-06 Eh
   gradient norm :     0.0001181 Eh/α   predicted    -0.1680248E-06 ( -55.98%)
   displ. norm   :     0.0256019 α      lambda       -0.2816735E-06
   maximum displ.:     0.0106387 α      in ANC's #1, #5, #4, ...

........................................................................
.............................. CYCLE   40 ..............................
........................................................................

 iter      E             dE          RMSdq      gap      omega  full diag
   1   -110.0520633 -0.110052E+03  0.324E-03    2.46       0.0  T
   2   -110.0520633 -0.381934E-08  0.185E-03    2.46       6.3  T
   3   -110.0520633  0.519714E-08  0.355E-04    2.46      32.7  T
   4   -110.0520633 -0.490414E-08  0.197E-04    2.46      59.1  T
     SCC iter.                  ...        0 min,  0.429 sec
     gradient                   ...        0 min,  0.116 sec
 * total energy  :  -108.3915553 Eh     change       -0.3392227E-06 Eh
   gradient norm :     0.0001271 Eh/α   predicted    -0.1424353E-06 ( -58.01%)
   displ. norm   :     0.0239275 α      lambda       -0.2678319E-06
   maximum displ.:     0.0117283 α      in ANC's #5, #1, #3, ...

........................................................................
.............................. CYCLE   41 ..............................
........................................................................

 iter      E             dE          RMSdq      gap      omega  full diag
   1   -110.0520674 -0.110052E+03  0.283E-03    2.46       0.0  T
   2   -110.0520674 -0.396378E-08  0.155E-03    2.46       7.5  T
   3   -110.0520674  0.859202E-09  0.304E-04    2.46      38.2  T
   4   -110.0520674  0.330033E-09  0.197E-04    2.46      59.1  T
     SCC iter.                  ...        0 min,  0.427 sec
     gradient                   ...        0 min,  0.111 sec
 * total energy  :  -108.3915556 Eh     change       -0.3344138E-06 Eh
   gradient norm :     0.0001225 Eh/α   predicted    -0.1361997E-06 ( -59.27%)
   displ. norm   :     0.0233836 α      lambda       -0.2562517E-06
   maximum displ.:     0.0124767 α      in ANC's #5, #1, #3, ...

........................................................................
.............................. CYCLE   42 ..............................
........................................................................

 iter      E             dE          RMSdq      gap      omega  full diag
   1   -110.0520719 -0.110052E+03  0.261E-03    2.46       0.0  T
   2   -110.0520719 -0.422976E-08  0.142E-03    2.46       8.2  T
   3   -110.0520719  0.851927E-09  0.297E-04    2.46      39.1  T
   4   -110.0520719 -0.358241E-09  0.170E-04    2.46      68.3  T
     SCC iter.                  ...        0 min,  0.453 sec
     gradient                   ...        0 min,  0.123 sec
 * total energy  :  -108.3915559 Eh     change       -0.3303103E-06 Eh
   gradient norm :     0.0000914 Eh/α   predicted    -0.1307548E-06 ( -60.41%)
   displ. norm   :     0.0229508 α      lambda       -0.2301414E-06
   maximum displ.:     0.0129221 α      in ANC's #5, #1, #3, ...
 * RMSD in coord.:     0.0738249 α      energy gain  -0.3729680E-04 Eh

generating ANC from exact Hessian ...
Using Lindh-Hessian (1995)
 Shifting diagonal of input Hessian by    9.8940363389131685E-003
 Lowest  eigenvalues of input Hessian
    0.000000    0.000000    0.000000    0.000000    0.000000    0.000000
    0.010000    0.010256    0.010280    0.010395    0.010511    0.010653
    0.010935    0.011408    0.011732    0.011866    0.011957    0.012075
 Highest eigenvalues
    2.029661    2.038476    2.050211    2.118956    2.129808    2.277227


........................................................................
.............................. CYCLE   43 ..............................
........................................................................

 iter      E             dE          RMSdq      gap      omega  full diag
   1   -110.0520645 -0.110052E+03  0.261E-03    2.46       0.0  T
   2   -110.0520645 -0.478113E-08  0.138E-03    2.46       8.4  T
   3   -110.0520645  0.949370E-09  0.317E-04    2.46      36.7  T
   4   -110.0520645 -0.345935E-09  0.174E-04    2.46      66.7  T
     SCC iter.                  ...        0 min,  0.454 sec
     gradient                   ...        0 min,  0.111 sec
 * total energy  :  -108.3915562 Eh     change       -0.3000766E-06 Eh
   gradient norm :     0.0000892 Eh/α   predicted     0.0000000E+00 (-100.00%)
   displ. norm   :     0.0001338 α      lambda        0.0000000E+00
   maximum displ.:     0.0000740 α      in ANC's #215, #216, #194, ...

........................................................................
.............................. CYCLE   44 ..............................
........................................................................

 iter      E             dE          RMSdq      gap      omega  full diag
   1   -110.0520604 -0.110052E+03  0.151E-04    2.46       0.0  T
   2   -110.0520604 -0.320043E-09  0.107E-04    2.46     108.3  T
   3   -110.0520604 -0.481180E-10  0.580E-05    2.46     200.3  T
     SCC iter.                  ...        0 min,  0.285 sec
     gradient                   ...        0 min,  0.111 sec
 * total energy  :  -108.3915563 Eh     change       -0.9210794E-08 Eh
   gradient norm :     0.0000446 Eh/α   predicted    -0.2547278E-08 ( -72.34%)
   displ. norm   :     0.0001338 α      lambda        0.0000000E+00
   maximum displ.:     0.0000740 α      in ANC's #215, #216, #194, ...

   *** GEOMETRY OPTIMIZATION CONVERGED AFTER 44 ITERATIONS ***

------------------------------------------------------------------------
 total energy gain   :        -0.0259640 Eh      -16.2926 kcal/mol
 total RMSD          :         0.4228270 a0        0.2238 Å
 total power (kW/mol):        -1.5492829 (step)   -1.7161 (real)
------------------------------------------------------------------------

 ANCopt (total)                0 d,  0 h,  0 min, 39.722 sec
 optimizer setup                ...        0 min,  0.001 sec (  0.002%)
 model hessian                  ...        0 min,  0.143 sec (  0.360%)
 ANC generation                 ...        0 min,  0.016 sec (  0.040%)
 coordinate transformation      ...        0 min,  0.004 sec (  0.011%)
 single point calculation       ...        0 min, 38.701 sec ( 97.429%)
 optimization log               ...        0 min,  0.010 sec (  0.024%)
 hessian update                 ...        0 min,  0.797 sec (  2.007%)
 rational function              ...        0 min,  0.010 sec (  0.026%)

================
 final structure:
================
74
 xtb: 6.7.1 (edcfbbe)
C           -1.27907648369152        4.15920611410810        2.77480855769145
C           -1.63892568915620        2.67891720832026        2.70472979843438
C           -2.80095958758428        2.35051550755504        3.63913600371286
N           -1.93851000118403        2.22210086423512        1.33334147480207
C           -3.06508868664645        2.84787502355710        0.62235505721920
C           -3.98493211598101        1.76708016448357        0.06577104164408
C           -2.61752409206775        3.82932959778627       -0.45494242058502
P           -0.64134784929463        1.60756820088893        0.54709773137255
S            1.12406398294893        2.75993596759091        0.35457897367497
S            2.34043771082079        1.96295876614739        1.78497059453196
C            3.04008935568071        0.56164875378453        0.92389458525645
C            2.95423051683828       -0.69536202855561        1.54313510232206
C            3.50608831739144       -1.78259463402400        0.92747057687795
C            4.15754063673965       -1.65912065872028       -0.31860691551655
C            4.74945694316684       -2.76380034465762       -0.96658158196879
C            5.39111376731468       -2.60761057561134       -2.16407839345669
C            5.46807620146367       -1.34279741794808       -2.77018665991753
C            4.89801744244989       -0.25350530309528       -2.17324671088410
C            4.23018029166351       -0.38199950840926       -0.93710818142811
C            3.65809470537624        0.72661731244558       -0.28453143817796
O           -1.15988618740289        1.18915722971425       -0.87639479112682
C           -0.19195725814301        0.57964982677217       -1.71675583989919
C            0.55864197724847        1.37445316065855       -2.57252451530778
C            1.54341395130590        0.79789689861485       -3.35443086622696
C            1.82527355869283       -0.55736589712051       -3.24864803408618
C            1.08254411784109       -1.33072560223190       -2.38163272172428
C            0.04133610208028       -0.77507750171636       -1.63208723502730
C           -0.68415009146823       -1.85003170654215       -0.87503495712702
C            0.43288351190335       -2.91809697989784       -0.75000805565203
C            1.23715986163732       -2.78258473286358       -2.04926152603233
C           -1.87805802327386       -2.42067836170559       -1.67890100209578
C           -2.69092413528099       -3.20631049690720       -0.64101276317362
C           -2.40345637463327       -2.47545600435900        0.63509356805402
C           -3.06432265269304       -2.56686878515775        1.84233287001621
C           -2.65005633503314       -1.76626088206396        2.89773847290604
C           -1.65061056746953       -0.82800502073271        2.71271223599845
C           -1.01504630043734       -0.72478483485558        1.48310949763320
C           -1.33357422695733       -1.59042240044250        0.45736829596851
O           -0.08006560647822        0.32872418950498        1.28999209215364
H           -0.43828109335229        4.39119087536161        2.12458827783068
H           -0.99938069578958        4.41008442308425        3.79442819882830
H           -2.12302406806037        4.78306530756046        2.49309700142691
H           -0.75976962165569        2.09995198000167        3.01889029574593
H           -2.46193147247003        2.40644443673152        4.66986049371189
H           -3.17995074657312        1.35036721066216        3.44767224514320
H           -3.61618487524396        3.05851535345818        3.51899651224625
H           -3.61523481381031        3.40100090207873        1.38626617599208
H           -4.89384784341967        2.22467557609027       -0.31515263981586
H           -4.25263609040283        1.06020105411782        0.84742211133394
H           -3.50614557083765        1.22598077320071       -0.74444564282903
H           -1.88575142254041        4.53087770359009       -0.06066769301421
H           -3.47595727779919        4.39385227903639       -0.80998645306563
H           -2.18474573572525        3.30629289425635       -1.30282053155714
H            2.46178389275449       -0.78119315447733        2.49926599192931
H            3.45969940581284       -2.75444095458738        1.39705310514824
H            4.69682389449163       -3.73324079276521       -0.49255973618308
H            5.84923319586616       -3.45546513616883       -2.65003729170067
H            5.98684660222428       -1.23890454213339       -3.71099587162331
H            4.95886642921104        0.72269001105145       -2.63073752430187
H            3.71612222261464        1.70153180730992       -0.74682987294274
H            0.36484657251583        2.43525285445413       -2.61403132452370
H            2.11200993780205        1.41731642146914       -4.02921489852960
H            2.62144356425913       -0.99775896716690       -3.82734751669573
H            0.03054376996226       -3.91662913500871       -0.60117445601288
H            1.06991202248672       -2.66960667384359        0.10128612558633
H            0.81594779304767       -3.40042783666876       -2.84522150137390
H            2.28227072638973       -3.06393859982490       -1.92742185295875
H           -1.55263366201679       -3.03381212618500       -2.51515575096593
H           -2.47481683531936       -1.59502540082426       -2.07117800506594
H           -3.75599333487840       -3.22099049617277       -0.86946527703726
H           -2.35524025185255       -4.24295139721690       -0.57150021827007
H           -3.88784378751475       -3.25241918300801        1.96557402956301
H           -3.13007072853861       -1.84746524859847        3.86005006640092
H           -1.34707778934431       -0.17919632742066        3.51782850671503

 Bond Distances (Angstroems)
 ---------------------------
C1-C2=1.5250         C1-H40=1.0879        C1-H41=1.0866        C1-H42=1.0867        C2-C1=1.5250         C2-C3=1.5269         
C2-N4=1.4762         C2-H43=1.0986        C3-C2=1.5269         C3-H44=1.0865        C3-H45=1.0865        C3-H46=1.0864        
N4-C2=1.4762         N4-C5=1.4718         N4-P8=1.6366         C5-N4=1.4718         C5-C6=1.5245         C5-C7=1.5245         
C5-H47=1.0919        C6-C5=1.5245         C6-H48=1.0866        C6-H49=1.0873        C6-H50=1.0856        C7-C5=1.5245         
C7-H51=1.0877        C7-H52=1.0870        C7-H53=1.0862        P8-N4=1.6366         P8-S9=2.1170         P8-O21=1.5717        
P8-O39=1.5819        S9-P8=2.1170         S9-S10=2.0398        S10-S9=2.0398        S10-C11=1.7874       C11-S10=1.7874       
C11-C12=1.4039       C11-C20=1.3673       C12-C11=1.4039       C12-C13=1.3659       C12-H54=1.0789       C13-C12=1.3659       
C13-C14=1.4115       C13-H55=1.0803       C14-C13=1.4115       C14-C15=1.4109       C14-C19=1.4209       C15-C14=1.4109       
C15-C16=1.3675       C15-H56=1.0804       C16-C15=1.3675       C16-C17=1.4047       C16-H57=1.0793       C17-C16=1.4047       
C17-C18=1.3667       C17-H58=1.0794       C18-C17=1.3667       C18-C19=1.4109       C18-H59=1.0798       C19-C14=1.4209       
C19-C18=1.4109       C19-C20=1.4079       C20-C11=1.3673       C20-C19=1.4079       C20-H60=1.0805       O21-P8=1.5717        
O21-C22=1.4194       C22-O21=1.4194       C22-C23=1.3883       C22-C27=1.3773       C23-C22=1.3883       C23-C24=1.3833       
C23-H61=1.0792       C24-C23=1.3833       C24-C25=1.3883       C24-H62=1.0781       C25-C24=1.3883       C25-C26=1.3789       
C25-H63=1.0783       C26-C25=1.3789       C26-C27=1.3981       C26-C30=1.4974       C27-C22=1.3773       C27-C26=1.3981       
C27-C28=1.5017       C28-C27=1.5017       C28-C29=1.5505       C28-C31=1.5483       C28-C38=1.5048       C29-C28=1.5505       
C29-C30=1.5340       C29-H64=1.0868       C29-H65=1.0919       C30-C26=1.4974       C30-C29=1.5340       C30-H66=1.0921       
C30-H67=1.0892       C31-C28=1.5483       C31-C32=1.5347       C31-H68=1.0868       C31-H69=1.0917       C32-C31=1.5347       
C32-C33=1.4984       C32-H70=1.0894       C32-H71=1.0919       C33-C32=1.4984       C33-C34=1.3793       C33-C38=1.3998       
C34-C33=1.3793       C34-C35=1.3880       C34-H72=1.0786       C35-C34=1.3880       C35-C36=1.3833       C35-H73=1.0784       
C36-C35=1.3833       C36-C37=1.3880       C36-H74=1.0776       C37-C36=1.3880       C37-C38=1.3795       C37-O39=1.4217       
C38-C28=1.5048       C38-C33=1.3998       C38-C37=1.3795       O39-P8=1.5819        O39-C37=1.4217       H40-C1=1.0879        
H41-C1=1.0866        H42-C1=1.0867        H43-C2=1.0986        H44-C3=1.0865        H45-C3=1.0865        H46-C3=1.0864        
H47-C5=1.0919        H48-C6=1.0866        H49-C6=1.0873        H50-C6=1.0856        H51-C7=1.0877        H52-C7=1.0870        
H53-C7=1.0862        H54-C12=1.0789       H55-C13=1.0803       H56-C15=1.0804       H57-C16=1.0793       H58-C17=1.0794       
H59-C18=1.0798       H60-C20=1.0805       H61-C23=1.0792       H62-C24=1.0781       H63-C25=1.0783       H64-C29=1.0868       
H65-C29=1.0919       H66-C30=1.0921       H67-C30=1.0892       H68-C31=1.0868       H69-C31=1.0917       H70-C32=1.0894       
H71-C32=1.0919       H72-C34=1.0786       H73-C35=1.0784       H74-C36=1.0776       
 C  H  Rav=1.0851 sigma=0.0052  Rmin=1.0776  Rmax=1.0986    35
 C  C  Rav=1.4354 sigma=0.0651  Rmin=1.3659  Rmax=1.5505    35
 N  C  Rav=1.4740 sigma=0.0022  Rmin=1.4718  Rmax=1.4762     2
 O  C  Rav=1.4206 sigma=0.0012  Rmin=1.4194  Rmax=1.4217     2
 P  N  Rav=1.6366 sigma=0.0000  Rmin=1.6366  Rmax=1.6366     1
 P  O  Rav=1.5768 sigma=0.0051  Rmin=1.5717  Rmax=1.5819     2
 S  C  Rav=1.7874 sigma=0.0000  Rmin=1.7874  Rmax=1.7874     1
 S  P  Rav=2.1170 sigma=0.0000  Rmin=2.1170  Rmax=2.1170     1
 S  S  Rav=2.0398 sigma=0.0000  Rmin=2.0398  Rmax=2.0398     1

 selected bond angles (degree)
 --------------------
H40-C1-C2=111.22               H41-C1-C2=109.14               H41-C1-H40=108.22              H42-C1-C2=111.23               
H42-C1-H40=108.84              H42-C1-H41=108.10              C3-C2-C1=111.11                N4-C2-C1=113.01                
N4-C2-C3=110.34                H43-C2-C1=108.03               H43-C2-C3=108.71               H43-C2-N4=105.37               
H44-C3-C2=109.39               H45-C3-C2=110.83               H45-C3-H44=108.87              H46-C3-C2=111.30               
H46-C3-H44=107.79              H46-C3-H45=108.58              C5-N4-C2=118.20                P8-N4-C2=113.68                
P8-N4-C5=122.29                C6-C5-N4=109.68                C7-C5-N4=112.98                C7-C5-C6=112.06                
H47-C5-N4=105.25               H47-C5-C6=108.09               H47-C5-C7=108.43               H48-C6-C5=109.52               
H49-C6-C5=110.30               H49-C6-H48=108.65              H50-C6-C5=111.08               H50-C6-H48=108.49              
H50-C6-H49=108.73              H51-C7-C5=110.89               H52-C7-C5=109.47               H52-C7-H51=108.34              
H53-C7-C5=111.01               H53-C7-H51=108.99              H53-C7-H52=108.05              S9-P8-N4=120.02                
O21-P8-N4=105.88               O21-P8-S9=109.74               O39-P8-N4=111.05               O39-P8-S9=100.77               
O39-P8-O21=109.10              S10-S9-P8=102.76               C11-S10-S9=101.65              

 selected dihedral angles (degree)
 ---------------------------------
C3-C2-C1-H40=178.86           C3-C2-C1-H41= 59.53           C3-C2-C1-H42=300.35           N4-C2-C1-H40=303.53           
N4-C2-C1-H41=184.20           N4-C2-C1-H42= 65.02           H43-C2-C1-H40= 59.70          H43-C2-C1-H41=300.37          
H43-C2-C1-H42=181.19          H44-C3-C2-C1=289.02           H44-C3-C2-N4=162.86           H44-C3-C2-H43= 47.78          
H45-C3-C2-C1=168.97           H45-C3-C2-N4= 42.81           H45-C3-C2-H43=287.73          H46-C3-C2-C1= 48.03           
H46-C3-C2-N4=281.86           H46-C3-C2-H43=166.78          C5-N4-C2-C1=299.11            C5-N4-C2-C3= 64.20            
C5-N4-C2-H43=181.36           P8-N4-C2-C1= 92.89            P8-N4-C2-C3=217.98            P8-N4-C2-H43=335.14           
C6-C5-N4-C2=231.03            C6-C5-N4-P8= 79.63            C7-C5-N4-C2=105.24            C7-C5-N4-P8=313.83            
H47-C5-N4-C2=347.10           H47-C5-N4-P8=195.69           H48-C6-C5-N4=170.84           H48-C6-C5-C7=297.16           
H48-C6-C5-H47= 56.59          H49-C6-C5-N4= 51.31           H49-C6-C5-C7=177.62           H49-C6-C5-H47=297.05          
H50-C6-C5-N4=290.67           H50-C6-C5-C7= 56.99           H50-C6-C5-H47=176.42          H51-C7-C5-N4=310.19           
H51-C7-C5-C6=185.68           H51-C7-C5-H47= 66.45          H52-C7-C5-N4=190.70           H52-C7-C5-C6= 66.19           
H52-C7-C5-H47=306.96          H53-C7-C5-N4= 71.51           H53-C7-C5-C6=307.00           H53-C7-C5-H47=187.77          
S9-P8-N4-C2=304.94            S9-P8-N4-C5= 97.51            O21-P8-N4-C2=180.20           O21-P8-N4-C5=332.78           
O39-P8-N4-C2= 61.91           O39-P8-N4-C5=214.49           S10-S9-P8-N4=101.75           S10-S9-P8-O21=224.63          
S10-S9-P8-O39=339.60          C11-S10-S9-P8= 83.92          
           -------------------------------------------------
          |                Final Singlepoint                |
           -------------------------------------------------

          ...................................................
          :                      SETUP                      :
          :.................................................:
          :  # basis functions                 209          :
          :  # atomic orbitals                 206          :
          :  # shells                          116          :
          :  # electrons                       200          :
          :  max. iterations                   250          :
          :  Hamiltonian                  GFN2-xTB          :
          :  restarted?                      false          :
          :  GBSA solvation                  false          :
          :  PC potential                    false          :
          :  electronic temp.          300.0000000     K    :
          :  accuracy                    1.0000000          :
          :  -> integral cutoff          0.2500000E+02      :
          :  -> integral neglect         0.1000000E-07      :
          :  -> SCF convergence          0.1000000E-05 Eh   :
          :  -> wf. convergence          0.1000000E-03 e    :
          :  Broyden damping             0.4000000          :
          :  net charge                          1          :
          :  unpaired electrons                  0          :
          ...................................................

 iter      E             dE          RMSdq      gap      omega  full diag
   1   -110.0520604 -0.110052E+03  0.321E-05    2.46       0.0  T
   2   -110.0520604 -0.328271E-11  0.258E-05    2.46     450.2  T
   3   -110.0520604 -0.290186E-10  0.147E-05    2.46     792.8  T

   *** convergence criteria satisfied after 3 iterations ***

         #    Occupation            Energy/Eh            Energy/eV
      -------------------------------------------------------------
         1        2.0000           -0.8829975             -24.0276
       ...           ...                  ...                  ...
        94        2.0000           -0.5120620             -13.9339
        95        2.0000           -0.5098904             -13.8748
        96        2.0000           -0.5072921             -13.8041
        97        2.0000           -0.5034322             -13.6991
        98        2.0000           -0.4975358             -13.5386
        99        2.0000           -0.4867777             -13.2459
       100        2.0000           -0.4750429             -12.9266 (HOMO)
       101                         -0.3846087             -10.4657 (LUMO)
       102                         -0.3593575              -9.7786
       103                         -0.3518321              -9.5738
       104                         -0.3434375              -9.3454
       105                         -0.3404980              -9.2654
       ...                                ...                  ...
       206                          1.0927323              29.7348
      -------------------------------------------------------------
                  HL-Gap            0.0904342 Eh            2.4608 eV
             Fermi-level           -0.4298258 Eh          -11.6962 eV

 SCC (total)                   0 d,  0 h,  0 min,  0.528 sec
 SCC setup                      ...        0 min,  0.036 sec (  6.794%)
 Dispersion                     ...        0 min,  0.002 sec (  0.303%)
 classical contributions        ...        0 min,  0.035 sec (  6.664%)
 integral evaluation            ...        0 min,  0.007 sec (  1.302%)
 iterations                     ...        0 min,  0.318 sec ( 60.202%)
 molecular gradient             ...        0 min,  0.122 sec ( 23.155%)
 printout                       ...        0 min,  0.008 sec (  1.567%)

         :::::::::::::::::::::::::::::::::::::::::::::::::::::
         ::                     SUMMARY                     ::
         :::::::::::::::::::::::::::::::::::::::::::::::::::::
         :: total energy            -108.391556250808 Eh    ::
         :: gradient norm              0.000044926437 Eh/a0 ::
[...]
        92        2.0000           -0.5171462             -14.0723
        93        2.0000           -0.5147063             -14.0059
        94        2.0000           -0.5120620             -13.9339
        95        2.0000           -0.5098904             -13.8748
        96        2.0000           -0.5072921             -13.8041
        97        2.0000           -0.5034322             -13.6991
        98        2.0000           -0.4975358             -13.5386
        99        2.0000           -0.4867777             -13.2459
       100        2.0000           -0.4750429             -12.9266 (HOMO)
       101                         -0.3846087             -10.4657 (LUMO)
       102                         -0.3593575              -9.7786
       103                         -0.3518321              -9.5738
       104                         -0.3434375              -9.3454
       105                         -0.3404980              -9.2654
       106                         -0.3392324              -9.2310
       107                         -0.3328288              -9.0567
       108                         -0.3264847              -8.8841
       109                         -0.2881868              -7.8420
       110                         -0.2862282              -7.7887
       111                         -0.2508326              -6.8255
       ...                                ...                  ...
       206                          1.0927323              29.7348
      -------------------------------------------------------------
                  HL-Gap            0.0904342 Eh            2.4608 eV
             Fermi-level           -0.4298258 Eh          -11.6962 eV

     #   Z          covCN         q      C6AA      α(0)
     1   6 C        3.754    -0.125    22.965     6.833
     2   6 C        4.035     0.050    19.659     6.298
     3   6 C        3.755    -0.123    22.921     6.827
     4   7 N        2.680    -0.171    24.711     7.383
     5   6 C        3.908     0.045    19.770     6.320
     6   6 C        3.755    -0.124    22.929     6.828
     7   6 C        3.755    -0.127    22.993     6.837
     8  15 P        4.549     0.572   137.239    21.044
     9  16 S        1.901    -0.070   143.950    20.194
    10  16 S        2.084    -0.021   141.918    20.050
    11   6 C        2.970     0.032    27.288     8.569
    12   6 C        2.955    -0.034    28.854     8.810
    13   6 C        2.921    -0.032    28.789     8.799
    14   6 C        2.986     0.016    27.643     8.625
    15   6 C        2.918    -0.033    28.827     8.805
    16   6 C        2.916    -0.023    28.586     8.767
    17   6 C        2.916    -0.023    28.588     8.768
    18   6 C        2.918    -0.032    28.794     8.799
    19   6 C        2.990     0.016    27.650     8.626
    20   6 C        2.956    -0.038    28.951     8.825
    21   8 O        1.658    -0.255    18.245     5.766
    22   6 C        3.217     0.119    24.747     8.092
    23   6 C        2.918    -0.053    29.307     8.877
    24   6 C        2.924    -0.025    28.622     8.773
    25   6 C        2.916    -0.036    28.899     8.815
    26   6 C        3.023     0.015    27.648     8.625
    27   6 C        3.024    -0.014    28.338     8.732
    28   6 C        3.966     0.024    20.097     6.370
    29   6 C        3.857    -0.061    21.632     6.615
    30   6 C        3.834    -0.066    21.747     6.635
    31   6 C        3.853    -0.060    21.624     6.614
    32   6 C        3.833    -0.067    21.749     6.635
    33   6 C        3.024     0.017    27.613     8.619
    34   6 C        2.915    -0.038    28.934     8.821
    35   6 C        2.924    -0.028    28.697     8.785
    36   6 C        2.919    -0.054    29.351     8.884
    37   6 C        3.194     0.123    24.825     8.124
    38   6 C        3.020    -0.015    28.352     8.734
    39   8 O        1.658    -0.273    18.537     5.812
    40   1 H        0.925     0.048     2.351     2.398
    41   1 H        0.925     0.070     2.085     2.258
    42   1 H        0.925     0.060     2.202     2.320
    43   1 H        0.924     0.047     2.363     2.404
    44   1 H        0.925     0.067     2.120     2.277
    45   1 H        0.925     0.056     2.242     2.341
    46   1 H        0.925     0.061     2.185     2.311
    47   1 H        0.924     0.069     2.092     2.262
    48   1 H        0.925     0.068     2.106     2.269
    49   1 H        0.925     0.051     2.302     2.373
    50   1 H        0.925     0.055     2.253     2.348
    51   1 H        0.925     0.052     2.293     2.368
    52   1 H        0.925     0.069     2.095     2.263
    53   1 H        0.925     0.055     2.263     2.353
    54   1 H        0.926     0.049     2.338     2.391
    55   1 H        0.926     0.051     2.311     2.377
    56   1 H        0.926     0.045     2.378     2.411
    57   1 H        0.926     0.051     2.313     2.378
    58   1 H        0.926     0.050     2.320     2.382
    59   1 H        0.926     0.044     2.393     2.419
    60   1 H        0.926     0.049     2.333     2.389
    61   1 H        0.926     0.062     2.181     2.309
    62   1 H        0.926     0.067     2.117     2.275
    63   1 H        0.926     0.062     2.179     2.308
    64   1 H        0.925     0.054     2.266     2.354
    65   1 H        0.924     0.041     2.439     2.442
    66   1 H        0.924     0.065     2.143     2.289
    67   1 H        0.925     0.058     2.218     2.329
    68   1 H        0.925     0.054     2.271     2.357
    69   1 H        0.924     0.043     2.414     2.430
    70   1 H        0.925     0.063     2.164     2.300
    71   1 H        0.924     0.065     2.146     2.291
    72   1 H        0.926     0.065     2.143     2.289
    73   1 H        0.926     0.065     2.140     2.287
    74   1 H        0.926     0.063     2.169     2.303

 Mol. C6AA /au·bohr⁶  :      72251.746681
 Mol. C8AA /au·bohr⁸  :    1954094.577976
 Mol. α(0) /au        :        426.193177


Wiberg/Mayer (AO) data.
largest (>0.10) Wiberg bond orders for each atom

 ---------------------------------------------------------------------------
     #   Z sym  total        # sym  WBO       # sym  WBO       # sym  WBO
 ---------------------------------------------------------------------------
     1   6 C    3.990 --     2 C    1.006    42 H    0.981    41 H    0.979
                            40 H    0.978
     2   6 C    3.956 --     1 C    1.006     3 C    1.004    43 H    0.946
                             4 N    0.938
     3   6 C    3.988 --     2 C    1.004    45 H    0.980    44 H    0.980
                            46 H    0.979
     4   7 N    3.381 --     8 P    1.236     2 C    0.938     5 C    0.937
     5   6 C    3.953 --     6 C    1.007     7 C    1.007    47 H    0.955
                             4 N    0.937
     6   6 C    3.990 --     5 C    1.007    49 H    0.984    48 H    0.980
                            50 H    0.979
     7   6 C    3.990 --     5 C    1.007    52 H    0.979    51 H    0.979
                            53 H    0.976
     8  15 P    5.127 --    21 O    1.300    39 O    1.283     4 N    1.236
                             9 S    0.973
     9  16 S    2.421 --    10 S    1.172     8 P    0.973
    10  16 S    2.341 --     9 S    1.172    11 C    0.977
    11   6 C    3.952 --    20 C    1.514    12 C    1.293    10 S    0.977
    12   6 C    3.990 --    13 C    1.554    11 C    1.293    54 H    0.967
    13   6 C    3.990 --    12 C    1.554    14 C    1.277    55 H    0.965
                            20 C    0.112
    14   6 C    3.986 --    15 C    1.280    13 C    1.277    19 C    1.245
    15   6 C    3.990 --    16 C    1.554    14 C    1.280    56 H    0.967
                            18 C    0.117
    16   6 C    3.984 --    15 C    1.554    17 C    1.318    57 H    0.970
    17   6 C    3.990 --    18 C    1.559    16 C    1.318    58 H    0.969
    18   6 C    3.989 --    17 C    1.559    19 C    1.273    59 H    0.967
                            15 C    0.117
    19   6 C    3.990 --    20 C    1.283    18 C    1.273    14 C    1.245
    20   6 C    3.989 --    11 C    1.514    19 C    1.283    60 H    0.964
                            13 C    0.112
    21   8 O    2.407 --     8 P    1.300    22 C    0.877
    22   6 C    3.877 --    27 C    1.406    23 C    1.382    21 O    0.877
    23   6 C    3.986 --    24 C    1.451    22 C    1.382    61 H    0.963
                            26 C    0.107
    24   6 C    3.984 --    23 C    1.451    25 C    1.420    62 H    0.967
                            27 C    0.104
    25   6 C    3.988 --    26 C    1.439    24 C    1.420    63 H    0.965
    26   6 C    3.984 --    25 C    1.439    27 C    1.346    30 C    1.017
                            23 C    0.107
    27   6 C    3.982 --    22 C    1.406    26 C    1.346    28 C    0.992
                            24 C    0.104
    28   6 C    3.989 --    27 C    0.992    38 C    0.990    31 C    0.957
                            29 C    0.955
    29   6 C    3.992 --    30 C    1.002    64 H    0.977    65 H    0.975
                            28 C    0.955
    30   6 C    3.994 --    26 C    1.017    29 C    1.002    67 H    0.962
                            66 H    0.954
    31   6 C    3.992 --    32 C    1.002    69 H    0.978    68 H    0.977
                            28 C    0.957
    32   6 C    3.994 --    33 C    1.017    31 C    1.002    70 H    0.965
                            71 H    0.955
    33   6 C    3.984 --    34 C    1.440    38 C    1.346    32 C    1.017
                            36 C    0.106
    34   6 C    3.987 --    33 C    1.440    35 C    1.420    72 H    0.966
    35   6 C    3.985 --    36 C    1.450    34 C    1.420    73 H    0.968
                            38 C    0.105
    36   6 C    3.986 --    35 C    1.450    37 C    1.384    74 H    0.961
                            33 C    0.106
    37   6 C    3.879 --    38 C    1.404    36 C    1.384    39 O    0.872
    38   6 C    3.983 --    37 C    1.404    33 C    1.346    28 C    0.990
                            35 C    0.105
    39   8 O    2.383 --     8 P    1.283    37 C    0.872
    40   1 H    0.998 --     1 C    0.978
    41   1 H    0.995 --     1 C    0.979
    42   1 H    0.996 --     1 C    0.981
    43   1 H    0.997 --     2 C    0.946
    44   1 H    0.995 --     3 C    0.980
    45   1 H    0.997 --     3 C    0.980
    46   1 H    0.996 --     3 C    0.979
    47   1 H    0.995 --     5 C    0.955
    48   1 H    0.994 --     6 C    0.980
    49   1 H    0.997 --     6 C    0.984
    50   1 H    0.997 --     6 C    0.979
    51   1 H    0.997 --     7 C    0.979
    52   1 H    0.995 --     7 C    0.979
    53   1 H    0.997 --     7 C    0.976
    54   1 H    0.997 --    12 C    0.967
    55   1 H    0.996 --    13 C    0.965
    56   1 H    0.997 --    15 C    0.967
    57   1 H    0.997 --    16 C    0.970
    58   1 H    0.997 --    17 C    0.969
    59   1 H    0.998 --    18 C    0.967
    60   1 H    0.997 --    20 C    0.964
    61   1 H    0.995 --    23 C    0.963
    62   1 H    0.995 --    24 C    0.967
    63   1 H    0.996 --    25 C    0.965
    64   1 H    0.996 --    29 C    0.977
    65   1 H    0.998 --    29 C    0.975
    66   1 H    0.996 --    30 C    0.954
    67   1 H    0.996 --    30 C    0.962
    68   1 H    0.996 --    31 C    0.977
    69   1 H    0.998 --    31 C    0.978
    70   1 H    0.995 --    32 C    0.965
    71   1 H    0.996 --    32 C    0.955
    72   1 H    0.995 --    34 C    0.966
    73   1 H    0.995 --    35 C    0.968
    74   1 H    0.995 --    36 C    0.961
 ---------------------------------------------------------------------------

Topologies differ in total number of bonds
Writing topology from bond orders to xtbtopo.mol

molecular dipole:
                 x           y           z       tot (Debye)
 q only:       -1.119       0.253       0.170
   full:       -1.012       0.239       0.194       2.688
molecular quadrupole (traceless):
                xx          xy          yy          xz          yz          zz
 q only:        5.192     -15.449       3.404     -24.887      12.970      -8.596
  q+dip:        2.298     -17.570       5.528     -29.790      11.592      -7.826
   full:        5.802     -17.551       2.869     -24.426      11.600      -8.671

           -------------------------------------------------
          |                Geometry Summary                 |
           -------------------------------------------------

      molecular mass/u    :      572.7410608
   center of mass at/Å    :        0.3818752       0.1305609       0.0370382
  moments of inertia/u·Å² :        0.3490562E+04   0.6011323E+04   0.7050073E+04
rotational constants/cm⁻¹ :        0.4829489E-02   0.2804313E-02   0.2391129E-02

 * 71 selected distances

     #   Z          #   Z                                           value/Å
     1   6 C        2   6 C                                       1.5250109
     2   6 C        3   6 C                                       1.5268549
     2   6 C        4   7 N                                       1.4761905
     4   7 N        5   6 C                                       1.4718271
     5   6 C        6   6 C                                       1.5244723
     5   6 C        7   6 C                                       1.5245122
     4   7 N        8  15 P                                       1.6366001
     8  15 P        9  16 S                                       2.1170013 (max)
     9  16 S       10  16 S                                       2.0397938
    11   6 C       12   6 C                                       1.4038900
    12   6 C       13   6 C                                       1.3658935
    13   6 C       14   6 C                                       1.4115047
    14   6 C       15   6 C                                       1.4108698
    15   6 C       16   6 C                                       1.3675225
    16   6 C       17   6 C                                       1.4046505
    17   6 C       18   6 C                                       1.3666975
    14   6 C       19   6 C                                       1.4208656
    18   6 C       19   6 C                                       1.4108707
    11   6 C       20   6 C                                       1.3672743
    19   6 C       20   6 C                                       1.4078956
     8  15 P       21   8 O                                       1.5717128
    22   6 C       23   6 C                                       1.3883270
    23   6 C       24   6 C                                       1.3833188
    24   6 C       25   6 C                                       1.3882984
    25   6 C       26   6 C                                       1.3789301
    22   6 C       27   6 C                                       1.3772730
    26   6 C       27   6 C                                       1.3980979
    29   6 C       30   6 C                                       1.5340417
    31   6 C       32   6 C                                       1.5346601
    33   6 C       34   6 C                                       1.3793214
    34   6 C       35   6 C                                       1.3879737
    35   6 C       36   6 C                                       1.3832754
    36   6 C       37   6 C                                       1.3879912
    33   6 C       38   6 C                                       1.3998282
    37   6 C       38   6 C                                       1.3794687
     8  15 P       39   8 O                                       1.5818888
     1   6 C       40   1 H                                       1.0879065
     1   6 C       41   1 H                                       1.0866435
     1   6 C       42   1 H                                       1.0866506
     2   6 C       43   1 H                                       1.0985505
     3   6 C       44   1 H                                       1.0864904
     3   6 C       45   1 H                                       1.0865494
     3   6 C       46   1 H                                       1.0864114
     5   6 C       47   1 H                                       1.0918651
     6   6 C       48   1 H                                       1.0865654
     6   6 C       49   1 H                                       1.0873464
     6   6 C       50   1 H                                       1.0855765
     7   6 C       51   1 H                                       1.0877103
     7   6 C       52   1 H                                       1.0870372
     7   6 C       53   1 H                                       1.0861685
    12   6 C       54   1 H                                       1.0789148
    13   6 C       55   1 H                                       1.0803449
    15   6 C       56   1 H                                       1.0804082
    16   6 C       57   1 H                                       1.0792993
    17   6 C       58   1 H                                       1.0793696
    18   6 C       59   1 H                                       1.0797953
    20   6 C       60   1 H                                       1.0805302
    23   6 C       61   1 H                                       1.0791551
    24   6 C       62   1 H                                       1.0781074
    25   6 C       63   1 H                                       1.0782978
    29   6 C       64   1 H                                       1.0867821
    29   6 C       65   1 H                                       1.0919042
    30   6 C       66   1 H                                       1.0921091
    30   6 C       67   1 H                                       1.0891565
    31   6 C       68   1 H                                       1.0868101
    31   6 C       69   1 H                                       1.0916526
    32   6 C       70   1 H                                       1.0893937
    32   6 C       71   1 H                                       1.0918517
    34   6 C       72   1 H                                       1.0785894
    35   6 C       73   1 H                                       1.0784488
    36   6 C       74   1 H                                       1.0776350 (min)

 * 7 distinct bonds (by element types)

   Z      Z             #   av. dist./Å        max./Å        min./Å
   1 H    6 C          35     1.0851436     1.0985505     1.0776350
   6 C    6 C          29     1.4186066     1.5346601     1.3658935
   6 C    7 N           2     1.4740088     1.4761905     1.4718271
   7 N   15 P           1     1.6366001     1.6366001     1.6366001
   8 O   15 P           2     1.5768008     1.5818888     1.5717128
  15 P   16 S           1     2.1170013     2.1170013     2.1170013
  16 S   16 S           1     2.0397938     2.0397938     2.0397938


optimized geometry written to: xtbopt.xyz


           -------------------------------------------------
          | TOTAL ENERGY             -108.391556250808 Eh   |
          | GRADIENT NORM               0.000044926437 Eh/α |
          | HOMO-LUMO GAP               2.460841103181 eV   |
           -------------------------------------------------

------------------------------------------------------------------------
 * finished run on 2024/12/16 at 21:01:13.359     
------------------------------------------------------------------------
 total:
 * wall-time:     0 d,  0 h,  0 min, 42.440 sec
 *  cpu-time:     0 d,  0 h,  5 min, 35.877 sec
 * ratio c/w:     7.914 speedup
 SCF:
 * wall-time:     0 d,  0 h,  0 min,  1.999 sec
 *  cpu-time:     0 d,  0 h,  0 min, 15.891 sec
 * ratio c/w:     7.949 speedup
 ANC optimizer:
 * wall-time:     0 d,  0 h,  0 min, 40.268 sec
 *  cpu-time:     0 d,  0 h,  5 min, 18.673 sec
 * ratio c/w:     7.914 speedup

