83
 energy: -115.504507857797 gnorm: 0.133253089651 xtb: 6.7.1 (edcfbbe)
C            1.91238600000000       -3.29085700000000       -0.70033400000000
C            1.95214700000000       -2.24566200000000       -1.82278300000000
C            1.91403900000000       -2.93950100000000       -3.18703600000000
C            3.14774100000000       -1.29462400000000       -1.75176800000000
C            4.41868000000000       -1.80090100000000       -1.40582700000000
C            5.54675000000000       -0.98022100000000       -1.36619800000000
C            5.43668100000000        0.36446800000000       -1.69197600000000
C            4.19659700000000        0.88559100000000       -2.05599800000000
C            3.04221100000000        0.07980100000000       -2.07797600000000
S            1.50350600000000        0.83733000000000       -2.61223900000000
S            1.32194900000000        2.51769400000000       -1.44188700000000
P            0.12413900000000        1.91222300000000        0.18230400000000
N            0.07635300000000        2.91334100000000        1.50077900000000
C           -1.01038200000000        2.72784300000000        2.46758700000000
C            0.88770600000000        4.13509800000000        1.74184600000000
C            0.44365600000000        5.24658900000000        0.77321600000000
C            0.75429400000000        4.72504700000000        3.17879200000000
C            2.39565900000000        3.85374100000000        1.58476800000000
N           -1.43732800000000        1.70913400000000       -0.33784700000000
C           -2.11479000000000        2.94932100000000       -0.70743600000000
C           -1.73948000000000        0.59619200000000       -1.17652900000000
C           -2.03203600000000        0.77987500000000       -2.54032000000000
C           -2.30819000000000       -0.29324900000000       -3.37944700000000
C           -2.27250100000000       -1.59508000000000       -2.89334300000000
C           -2.50734100000000       -2.66484500000000       -3.77552100000000
C           -2.44427400000000       -3.98422200000000       -3.33711900000000
C           -2.13155400000000       -4.24783100000000       -2.01423500000000
C           -1.89722700000000       -3.18807500000000       -1.13267100000000
C           -1.98546500000000       -1.82589100000000       -1.52408600000000
C           -1.76029800000000       -0.71098100000000       -0.62256300000000
C           -1.60971800000000       -0.88117600000000        0.79717400000000
C           -0.44551900000000       -0.39446700000000        1.46452300000000
C           -0.24459700000000       -0.72805700000000        2.81852000000000
C           -1.16826600000000       -1.47637100000000        3.53836200000000
C           -2.35779900000000       -1.88458100000000        2.94839500000000
C           -3.30368400000000       -2.58399700000000        3.71964600000000
C           -4.53081200000000       -2.96219600000000        3.18294500000000
C           -4.82894400000000       -2.63110800000000        1.87182100000000
C           -3.88851200000000       -1.94470700000000        1.09734600000000
C           -2.60774700000000       -1.57419300000000        1.58869600000000
N            0.50803700000000        0.41195100000000        0.76927500000000
C            1.87519400000000        0.32927000000000        1.27724900000000
H            0.99519900000000       -3.88547100000000       -0.76300400000000
H            1.93348900000000       -2.81148600000000        0.28397900000000
H            2.74837900000000       -3.99567300000000       -0.75158000000000
H            1.02824400000000       -1.67127300000000       -1.70968800000000
H            1.88727500000000       -2.21076600000000       -4.00542700000000
H            1.02576500000000       -3.57392800000000       -3.27756600000000
H            2.79681800000000       -3.57256200000000       -3.33733100000000
H            4.55447500000000       -2.85611900000000       -1.17844600000000
H            6.51194900000000       -1.39922300000000       -1.09515700000000
H            6.31381500000000        1.00562600000000       -1.68137800000000
H            4.13987200000000        1.93486800000000       -2.33802600000000
H           -0.62061600000000        2.49000400000000        3.46248600000000
H           -1.65611700000000        3.60969300000000        2.52005800000000
H           -1.67790700000000        1.90406300000000        2.20382700000000
H            1.04619300000000        6.15251100000000        0.91195800000000
H            0.53733800000000        4.96155500000000       -0.27593100000000
H           -0.60220700000000        5.52316100000000        0.94612400000000
H            1.40856200000000        5.59608400000000        3.30812400000000
H           -0.26032200000000        5.07466300000000        3.39701100000000
H            1.04542100000000        3.99340600000000        3.94140600000000
H            2.98715500000000        4.74612000000000        1.82357900000000
H            2.72357500000000        3.06303000000000        2.26821200000000
H            2.68661400000000        3.56703500000000        0.57665700000000
H           -2.13158100000000        3.65132200000000        0.12915100000000
H           -1.62431100000000        3.45363700000000       -1.54605600000000
H           -3.16586400000000        2.77128700000000       -0.96190500000000
H           -2.01331700000000        1.76879200000000       -2.98846600000000
H           -2.51459300000000       -0.09416200000000       -4.42818400000000
H           -2.73509000000000       -2.47431000000000       -4.82269200000000
H           -2.62916600000000       -4.80096800000000       -4.03060700000000
H           -2.05899200000000       -5.27282700000000       -1.66005000000000
H           -1.62414600000000       -3.44599700000000       -0.11079100000000
H            0.62913000000000       -0.38244200000000        3.36058800000000
H           -0.95854400000000       -1.69813700000000        4.58202400000000
H           -3.09437400000000       -2.82797600000000        4.75944900000000
H           -5.25536800000000       -3.49547000000000        3.79214200000000
H           -5.79135300000000       -2.89715500000000        1.44253100000000
H           -4.18148700000000       -1.68343300000000        0.08147200000000
H            1.98490100000000        0.84660900000000        2.23573800000000
H            2.19582400000000       -0.71159900000000        1.39547900000000
H            2.58410500000000        0.79579600000000        0.59218600000000
83
 energy: -115.524578750518 gnorm: 0.056993624236 xtb: 6.7.1 (edcfbbe)
C            1.91922091193432       -3.28213022284666       -0.70125836200657
C            1.94897029041363       -2.23605956839171       -1.82079437244609
C            1.91747159821845       -2.93084057043464       -3.18581976283574
C            3.14638407079760       -1.30140332519466       -1.74620832847379
C            4.40941903697411       -1.79546402235363       -1.41194293019033
C            5.53082787211695       -0.98028402927704       -1.37216356851935
C            5.42250057645809        0.36214703042137       -1.69471085184173
C            4.18952204195463        0.87596226254420       -2.05550892421122
C            3.05466243906160        0.06284221779242       -2.06393470051615
S            1.49199198370007        0.79662924183699       -2.55607162124777
S            1.37579455917743        2.48760024044053       -1.38211232210763
P            0.09291119332842        1.89784813487287        0.22095326489069
N            0.08007388388313        2.93414482071279        1.52215753309762
C           -1.01691053966671        2.72710103653698        2.46536288336987
C            0.89888274867311        4.16018300710824        1.73759689375850
C            0.44712943885919        5.25228528819769        0.76376422220706
C            0.74282659505452        4.71124485230757        3.17320175187879
C            2.39236913323653        3.84851872728489        1.56998916589618
N           -1.46437172568611        1.69966791386613       -0.32966392337828
C           -2.12034414873484        2.95089623792806       -0.70511792542358
C           -1.73478074939360        0.57774449936511       -1.18074547446124
C           -2.00993725744628        0.77726933994057       -2.54349216768973
C           -2.29628843391418       -0.27705834549120       -3.37429317063515
C           -2.26913436813593       -1.59223739914401       -2.89276036838400
C           -2.50507040410149       -2.66813718932942       -3.76996056772246
C           -2.44235300247903       -3.96808447829792       -3.32787867787019
C           -2.12340412535861       -4.22142023536590       -1.99469049554703
C           -1.89625652053640       -3.17937092923966       -1.11587635995007
C           -1.98577424051808       -1.82712954074538       -1.51820810743405
C           -1.76862346452953       -0.71139303928896       -0.63267798160590
C           -1.60576538933822       -0.89518620000981        0.80690217477895
C           -0.46358288355019       -0.41070236182318        1.46633912536962
C           -0.25270006584820       -0.71963291992006        2.82027534451110
C           -1.15620117188630       -1.46605119677303        3.53480391685510
C           -2.35592136722431       -1.88678715387267        2.94903849900135
C           -3.30869811945094       -2.58404695653454        3.71595431880200
C           -4.51694306369893       -2.95400429015863        3.17573125727858
C           -4.80529280415583       -2.61586327436902        1.85427271536880
C           -3.87715980981778       -1.94602025754904        1.08032625451031
C           -2.60607106124046       -1.58245895884385        1.58241440978191
N            0.50352612792281        0.38267774894099        0.77140653854323
C            1.87526400396048        0.32038514309535        1.27308762076306
H            0.99984211697212       -3.86332425354769       -0.77362075453130
H            1.93961311843235       -2.80843135958799        0.28028027278867
H            2.74958532410211       -3.98433154734597       -0.76176010800601
H            1.03256712199337       -1.64202724059871       -1.72325682199463
H            1.89027490364329       -2.20303449074240       -3.99735873450382
H            1.03100995713580       -3.56025884351509       -3.26739216910082
H            2.79618767304569       -3.56153265927869       -3.32548323897709
H            4.53425915841127       -2.84346189405571       -1.18099768190337
H            6.49169711600896       -1.39739761817068       -1.10122534695943
H            6.29358796387859        1.00291750803690       -1.68328567670597
H            4.11633848465525        1.92173640618205       -2.32978266264505
H           -0.62230416422997        2.49792473948809        3.45587590323731
H           -1.65469652389848        3.61072461155679        2.52417045786321
H           -1.65241304487387        1.88873487333187        2.16841978737664
H            1.04776249747367        6.14939929801920        0.90590918735552
H            0.54862107282985        4.93763990138106       -0.27543771941057
H           -0.59538372208994        5.51753166494941        0.94511817110590
H            1.40262150905795        5.57187410969706        3.28019151182915
H           -0.26440958447275        5.06052550669381        3.39010663345601
H            1.03892550561988        3.98356170896851        3.92760286836909
H            2.97259807490682        4.73944546842090        1.81037574295828
H            2.70567631901736        3.06396081131615        2.25981415965588
H            2.65857326762022        3.55477363866665        0.55720453242403
H           -2.12334768574693        3.63838128709061        0.14206752679020
H           -1.63021000208376        3.45472219065416       -1.54450762447519
H           -3.15989851526469        2.75190982428000       -0.96873229970068
H           -2.00848579323996        1.77022762385286       -2.97076828994692
H           -2.51725147636191       -0.08371188108976       -4.41498158732421
H           -2.73040589742186       -2.47032845782851       -4.80962176519669
H           -2.62635534991343       -4.78494095569081       -4.01446976800631
H           -2.05222127170374       -5.24268066873050       -1.64395817555933
H           -1.63384448599633       -3.42530120343455       -0.09514107338511
H            0.63046065899104       -0.37909571564967        3.34065976030362
H           -0.94681543378401       -1.69700766594986        4.57022403056823
H           -3.09284312983301       -2.82150765503698        4.74925809807586
H           -5.24141069301326       -3.48695232913954        3.77791472984650
H           -5.76534196195837       -2.87789857229672        1.42977795166032
H           -4.15700666881307       -1.68454642207132        0.06814524579467
H            1.98887008801807        0.83415544875070        2.23280687888576
H            2.18322078191904       -0.71916423501467        1.38901261979547
H            2.56419290195355        0.79340876950093        0.56915950202744
83
 energy: -115.530939624896 gnorm: 0.012709521138 xtb: 6.7.1 (edcfbbe)
C            1.91381444807422       -3.27310827865464       -0.70077079944320
C            1.94465577676540       -2.22734215019408       -1.81598080309147
C            1.91774510960027       -2.91937653488734       -3.18335486382746
C            3.14189478174617       -1.30884856443374       -1.73873970969654
C            4.40233054626184       -1.79644452142846       -1.41379636152224
C            5.51792553761650       -0.98160368116665       -1.37771755154324
C            5.40661614833987        0.36112380069413       -1.69767854823394
C            4.17257104549468        0.87218808587762       -2.04576961457465
C            3.05367095108601        0.05018622758760       -2.04216396909890
S            1.46938017745732        0.76546407327376       -2.49439370394392
S            1.37886657769036        2.45342197169082       -1.32986777987602
P            0.07324178007875        1.88069217921976        0.25423123176816
N            0.08494103645392        2.94023588725026        1.53982357740361
C           -1.02594889388893        2.71672858471250        2.46365018233731
C            0.90279779546153        4.17245112196994        1.73591706392446
C            0.45163758749073        5.25104433217269        0.75428751509761
C            0.74308325720862        4.71038498832827        3.16352005090743
C            2.38666930523996        3.84965716895112        1.55784984080291
N           -1.48027890065205        1.69419415371618       -0.32030960516944
C           -2.12702145415085        2.95100557962069       -0.69823665328808
C           -1.72765342806878        0.56706120798855       -1.17974265346773
C           -1.99450543336687        0.78286817683103       -2.54251246051561
C           -2.28188210248111       -0.26101646874204       -3.36859324957428
C           -2.25930936668710       -1.58431017818821       -2.88891307266576
C           -2.49851752386785       -2.66700531655851       -3.75942957314123
C           -2.43606882815214       -3.95375633227457       -3.30953424732877
C           -2.11670228097369       -4.19753943798576       -1.96646075708743
C           -1.89462006905531       -3.16580649110696       -1.09338315281672
C           -1.97816232748047       -1.82055721500102       -1.51256609938767
C           -1.76664970959663       -0.70560719465670       -0.63976149680512
C           -1.59645383043080       -0.90221048421016        0.81487002813150
C           -0.47135606446856       -0.42603604213676        1.46460945870600
C           -0.25119427275359       -0.71819393474877        2.82171728984149
C           -1.14542700648542       -1.45926705667155        3.53295922963472
C           -2.35054294735195       -1.88679430234917        2.94676024725136
C           -3.31123802069922       -2.58322639199780        3.70691720879027
C           -4.50636761505121       -2.94596783567964        3.15821879827058
C           -4.78330738352754       -2.60387765700336        1.82705763338568
C           -3.86077833459708       -1.94584107548258        1.05801920358886
C           -2.59838948141096       -1.58500269043914        1.57706949645629
N            0.50702282988194        0.35089394502882        0.76277308233832
C            1.87969728819067        0.30030657619974        1.26222083701533
H            0.99268189025786       -3.84588990192355       -0.77639570487386
H            1.94415645669716       -2.80326277410633        0.27937961062278
H            2.74306638991893       -3.96983090916970       -0.77747859823776
H            1.03535137052645       -1.61843221174384       -1.72970150288480
H            1.89314561507487       -2.18858159905383       -3.98792259171214
H            1.03241641993182       -3.54586928582857       -3.26132184746441
H            2.79685676743569       -3.54565711971178       -3.31261698400079
H            4.51953155554765       -2.84203779871768       -1.18389731110760
H            6.47732825205408       -1.39624757099880       -1.11013600101174
H            6.27330209070375        1.00278213200664       -1.68800725232515
H            4.08027497059030        1.91463296998456       -2.31645146883199
H           -0.64404048173807        2.49186647564643        3.45846877419497
H           -1.67042668876564        3.59361770998150        2.52535092167537
H           -1.63023941120270        1.86861433967497        2.13363695698910
H            1.04961062703693        6.14643019836076        0.88804065460229
H            0.56271106047391        4.91012180446119       -0.27456939116975
H           -0.58927027783456        5.51156157400530        0.93203429988111
H            1.40173849234839        5.56727608124268        3.27129448699265
H           -0.26425066753787        5.04920946701572        3.37607374875545
H            1.03681086394995        3.97499501297988        3.90572010286392
H            2.97088840458321        4.73570018002892        1.78870271987888
H            2.68947221319159        3.06446219815036        2.24594827909936
H            2.62542087750214        3.54917950528417        0.54201418977224
H           -2.11871603234559        3.62501503660703        0.15685049011183
H           -1.63679160021485        3.45487245722642       -1.53680118777776
H           -3.16010382177707        2.73936102310564       -0.96677832927049
H           -1.98599134586729        1.77982854324306       -2.95189682242495
H           -2.51118443201399       -0.07918302866023       -4.40657761649003
H           -2.72413744805978       -2.46025327747984       -4.79438587076885
H           -2.61937119852601       -4.77547088572818       -3.98542468349568
H           -2.04281308005779       -5.21721844313103       -1.61976729189114
H           -1.64224261100840       -3.39425429530937       -0.06947993668074
H            0.63570840676346       -0.36845807645870        3.32317044423804
H           -0.94535796138954       -1.69766470284365        4.56550353512002
H           -3.08857714730366       -2.81338596322335        4.73756593145252
H           -5.23699449459478       -3.47631409353098        3.74989241746700
H           -5.74379609151856       -2.86010825890354        1.40702075308389
H           -4.11931617645095       -1.68631085344793        0.04325016171221
H            2.00083061339775        0.81716532823265        2.21859465784300
H            2.17862668120014       -0.73874935776928        1.37762446875778
H            2.54750824408053        0.77532114538645        0.54067853775263
83
 energy: -115.532718063608 gnorm: 0.011023455520 xtb: 6.7.1 (edcfbbe)
C            1.90098466843295       -3.27126041124553       -0.69799580132395
C            1.93318486978013       -2.22305635322827       -1.80845932480476
C            1.91262972716422       -2.90808227292739       -3.17959398709139
C            3.12971319389353       -1.31124826683081       -1.72592809588498
C            4.39456830769706       -1.79896098459958       -1.41373096263207
C            5.50661067111939       -0.97930240394903       -1.38413914966749
C            5.38774447677690        0.36482592062833       -1.69878937660400
C            4.14786207650587        0.87572566641106       -2.03122151003165
C            3.03367595770390        0.04852396499835       -2.01789087376880
S            1.43533490722537        0.75177329218504       -2.44667173870726
S            1.38985128786320        2.45376375923248       -1.29818388994282
P            0.07438362127373        1.87363161704991        0.26802893010267
N            0.08807891958137        2.93594898280704        1.54762323199038
C           -1.03082912338232        2.70546180501078        2.46382565136374
C            0.90107827401174        4.17195301591208        1.73230330087752
C            0.45022732375082        5.24026202178124        0.73900250521313
C            0.73869997122707        4.70744795873997        3.15770044924542
C            2.38188189740026        3.84531186617175        1.54330276651798
N           -1.47827933911535        1.69642226567346       -0.31120609944969
C           -2.12927604049484        2.95207210481158       -0.68465206222829
C           -1.71754330441597        0.57195806613801       -1.17513494015608
C           -1.97783967693566        0.79269184742379       -2.53985914724236
C           -2.26489924938685       -0.25227700143391       -3.36477767457670
C           -2.24523422255607       -1.57609727390346       -2.88242937914281
C           -2.48732711693963       -2.66359417953754       -3.74691610230665
C           -2.42586413030122       -3.94748368433606       -3.28803175470922
C           -2.10756672828922       -4.18646996108860       -1.94186527772295
C           -1.88632711139502       -3.15247265156314       -1.07449625110706
C           -1.96544716336771       -1.81082591002945       -1.50743461093363
C           -1.75558164669061       -0.69718501887942       -0.63873175995448
C           -1.58589397046629       -0.89943930307470        0.81802176899034
C           -0.46341417016919       -0.42916221157259        1.46627257763784
C           -0.24333706159233       -0.71728769473397        2.82607921967348
C           -1.14127844635044       -1.45635557943404        3.53427836684034
C           -2.34541959765419       -1.88389215201426        2.94225441945159
C           -3.31269345279839       -2.58038470955234        3.69500086719170
C           -4.50472855318197       -2.93890581309526        3.13597215304863
C           -4.77310854274356       -2.59683813916268        1.80111826062049
C           -3.84496314447462       -1.94280945401599        1.03864975055098
C           -2.58855084734153       -1.58220836387021        1.57336103413582
N            0.51666584830756        0.33747848230854        0.75428628232071
C            1.89091922080232        0.27943757265563        1.24560593042116
H            0.97661116007723       -3.83814184123752       -0.77050830599431
H            1.94234883985611       -2.80430898484482        0.28324642365868
H            2.72839176281516       -3.96901231877210       -0.78595351938951
H            1.02653179524381       -1.61044483572407       -1.72528219984968
H            1.89196709007050       -2.17153965326255       -3.97907423576092
H            1.02852539189556       -3.53476699158468       -3.26373722949257
H            2.79477911231206       -3.53070495063361       -3.30557959579566
H            4.51318072643470       -2.84606005318145       -1.18939431399851
H            6.46935731517975       -1.39148892537832       -1.12558056251153
H            6.25301617963763        1.00818145252830       -1.69576751334910
H            4.04326788439239        1.91848424974601       -2.29484609032928
H           -0.66227220937251        2.48155509143005        3.46456382314879
H           -1.68743981297279        3.57416673842242        2.52103757937781
H           -1.61891687000775        1.85231034714070        2.12076081596046
H            1.04865598530613        6.13723401015085        0.86353823405168
H            0.56785438540621        4.88616863873713       -0.28452203967162
H           -0.59099328667950        5.50376837408831        0.90888801579316
H            1.39542604236541        5.56520201155382        3.26928178777823
H           -0.27110756152849        5.04170493708308        3.36847239789732
H            1.03292586461294        3.96784743517732        3.89619660406155
H            2.97287647339649        4.72954343514238        1.76320540699668
H            2.68617721394620        3.05980883032857        2.22972881854715
H            2.60483849660289        3.54120794308835        0.52526445998467
H           -2.12111199278143        3.62006641686658        0.17377107197239
H           -1.64111567735293        3.45930836077140       -1.52187728171387
H           -3.16123544788258        2.73498360804087       -0.95377518557967
H           -1.96222496639793        1.79229007341496       -2.94154473377016
H           -2.49525788865949       -0.07758895672507       -4.40399658593858
H           -2.71463454115225       -2.45574467748788       -4.78156968233821
H           -2.61105694103908       -4.77521787342772       -3.95510594017316
H           -2.03785436035971       -5.20545755161173       -1.59269854090107
H           -1.64231407449627       -3.36664969316991       -0.04505860987707
H            0.64533834376388       -0.36295654419630        3.32006400778219
H           -0.95024958568154       -1.69824090200963        4.56810085136885
H           -3.09111849227482       -2.80972282635791        4.72635833064632
H           -5.24267522791659       -3.46873197076134        3.71810093152809
H           -5.73178998027541       -2.85324268534651        1.37756503381105
H           -4.08464936038032       -1.68518220379275        0.01822521526960
H            2.02407454995150        0.79862476288999        2.19865950952753
H            2.18088909007947       -0.76227142545184        1.36158772423078
H            2.55229599339123        0.74592973249585        0.51470842683644
83
 energy: -115.533995333280 gnorm: 0.009312703416 xtb: 6.7.1 (edcfbbe)
C            1.88065618452039       -3.27492421385241       -0.69320131060758
C            1.91583897976072       -2.22227123403791       -1.79787857660135
C            1.90205631031457       -2.89600211428520       -3.17446293956838
C            3.11140218070420       -1.31356318492027       -1.71214205483274
C            4.38103325165583       -1.80049471619584       -1.41243677879493
C            5.48888612518674       -0.97430612655500       -1.39135729401078
C            5.36003660081197        0.37168925265046       -1.69556243399110
C            4.11472758812520        0.88155196874406       -2.01117090199328
C            3.00673763073744        0.04676507546919       -1.99666053127549
S            1.40508039549737        0.73667495504066       -2.42825932408617
S            1.36278371951404        2.44520188117147       -1.29480673320404
P            0.08083872623845        1.86956329383275        0.28378258567616
N            0.08883768109920        2.92920435809943        1.55829000426625
C           -1.03618305600998        2.69147595349969        2.46824629590321
C            0.89714454441500        4.16817576190311        1.72840206757326
C            0.44575978136015        5.22394158155432        0.72081226527342
C            0.73235502114719        4.70677966141024        3.15031968011995
C            2.37766070415333        3.84283128956036        1.53495412114247
N           -1.46958775452129        1.70147094236148       -0.29963001292128
C           -2.13089100890608        2.95400067830528       -0.66276588590878
C           -1.70098371981743        0.58246206781189       -1.16946860142189
C           -1.95356825379313        0.80400325297857       -2.53665393472094
C           -2.23719275592628       -0.24430052092682       -3.36023361409912
C           -2.22102064408257       -1.56714671809285       -2.87368201713034
C           -2.46729038150268       -2.66040618946745       -3.73027148312647
C           -2.40968103461231       -3.94135355533458       -3.25989526985241
C           -2.09361166309567       -4.17572553120873       -1.91190604936343
C           -1.86906867476328       -3.13667215564037       -1.05246255789126
C           -1.94337342789119       -1.79914054498373       -1.50045832126851
C           -1.73592628654175       -0.68587548023475       -0.63502712622500
C           -1.57170823444752       -0.89123398055608        0.82074832450825
C           -0.44874094497341       -0.42799297244924        1.47094552821984
C           -0.23281929115183       -0.71553338449069        2.83273961984911
C           -1.13919752582358       -1.45126706053632        3.53572302795295
C           -2.34130797380199       -1.87617129958111        2.93550092118149
C           -3.31665218256576       -2.57435193520344        3.67733633432357
C           -4.50436409185476       -2.92953598391411        3.10430654627926
C           -4.76213779000003       -2.58863245302212        1.76663771141956
C           -3.82627740764211       -1.93425964684904        1.01480533759277
C           -2.57734334534236       -1.57350678937452        1.56815205312617
N            0.53093784280516        0.32819099435389        0.74658879294189
C            1.90933732002797        0.25222716489995        1.22177462270977
H            0.95057179695364       -3.83295380547108       -0.75901776596472
H            1.93662545465862       -2.81245003082220        0.29002039170402
H            2.70270383300464       -3.97805877392051       -0.79300780128846
H            1.01019849955779       -1.60917441329601       -1.71581678770631
H            1.88574043285827       -2.15063166294911       -3.96658529594328