83
 energy: -115.538309923891 gnorm: 0.000047835780 xtb: 6.7.1 (edcfbbe)
C            2.02739555405157       -3.64170725048120       -0.66011520663422
C            1.85244528123360       -2.43768018092158       -1.58200709386603
C            1.64321368634628       -2.89751077629793       -3.02903091987492
C            3.00965065060674       -1.47352019279219       -1.55208928096462
C            4.31167200541417       -1.88012503109144       -1.28199105222782
C            5.36901697931554       -0.98869369139575       -1.31482628191704
C            5.15117153891475        0.34078234612972       -1.63515933911669
C            3.86989407299622        0.76976267859962       -1.92330724009234
C            2.81538902511704       -0.12839683453169       -1.86683979427581
S            1.16229607954614        0.44152836479338       -2.25931461280118
S            1.09363381481031        2.26532428900911       -1.35250695096050
P           -0.01828686747810        1.91497935205338        0.46045138653888
N            0.13392996209933        3.08409968425745        1.62426387846124
C           -0.03198367412004        2.59340953862768        2.99132604075557
C            0.75581249298162        4.41484778003827        1.41928085629232
C            0.14123113727216        5.04312683338691        0.17138134330885
C            0.45306787927912        5.33019645404375        2.60725540925380
C            2.27000568744624        4.26193301032544        1.27045545663795
N           -1.62441172001404        1.72091645502836        0.14357144774643
C           -2.64046113028711        2.73188139326053        0.37216816666319
C           -1.83786563368694        0.76384316239590       -0.90319440494257
C           -2.09061517072286        1.18225842319720       -2.22007350163544
C           -2.23733572721040        0.25240438800564       -3.20832770193867
C           -2.10564137592127       -1.12444465436949       -2.92981850501140
C           -2.22341026941068       -2.09221577646908       -3.94901853312488
C           -2.08011416331754       -3.42221878890897       -3.67072416452222
C           -1.79385574136917       -3.83987462768909       -2.36192606899555
C           -1.67347517698234       -2.92757985530554       -1.35058240086922
C           -1.84502148056261       -1.54906421256742       -1.59965091785994
C           -1.74127080289149       -0.56841843759159       -0.57354071073965
C           -1.53868546675008       -0.95228379114617        0.83549045001120
C           -0.43691138203109       -0.51343366338962        1.54197949010192
C           -0.18990865631489       -0.99279954209444        2.84351898100801
C           -1.05505139201726       -1.86350675588041        3.43933954679669
C           -2.24170930866822       -2.26004337974508        2.79149427840620
C           -3.18069883556764       -3.10344837940617        3.42048320277817
C           -4.34289326836091       -3.44592322636848        2.78890478215558
C           -4.61796075932162       -2.94615898071238        1.50712678594407
C           -3.72103461682594       -2.13738050146811        0.86601376871808
C           -2.49783562913597       -1.78711960204232        1.47825184562022
N            0.48090206568297        0.40885152664855        0.95198934139205
C            1.89711063284497        0.26633055392087        1.26597119095442
H            1.09145876000826       -4.19198730720295       -0.60563298891663
H            2.30141886912244       -3.33138104256537        0.34653482808540
H            2.78860060834244       -4.31916668868650       -1.03713253784252
H            0.95022969436826       -1.89704248003729       -1.26895226650042
H            1.42327785607826       -2.04685550222356       -3.67176336243002
H            0.81024824815136       -3.59289267297761       -3.08447237913400
H            2.53827042377644       -3.39080775849813       -3.40073826716601
H            4.50366394512563       -2.91360349451441       -1.04423893496232
H            6.36790408221826       -1.33507556892510       -1.09999655312847
H            5.97210807419055        1.03907372054944       -1.67466540441557
H            3.68525921257466        1.80098973570028       -2.18837067750091
H            0.91831744238567        2.54372543924664        3.52746531244599
H           -0.70867183045930        3.24449858884576        3.54273412988437
H           -0.48346010952727        1.60194038526819        2.96985255722360
H            0.66086396970112        5.96575553844899       -0.07122387296685
H            0.22472754036187        4.37917667136310       -0.68695510342073
H           -0.90795522063381        5.27438615145686        0.33815253364168
H            0.81902618320249        6.32626802817428        2.37410349015565
H           -0.61629277699936        5.40387267336101        2.78770063948032
H            0.94914273165616        4.99924209206683        3.51453154136971
H            2.74153475587881        5.23902251851635        1.22149261218568
H            2.68513084484017        3.72770834253241        2.12236144620784
H            2.51332283883338        3.71971642935992        0.35993628121698
H           -2.31256402032306        3.38171871479754        1.18039155676051
H           -2.84362283097836        3.33446983675173       -0.51479845145586
H           -3.56060322399773        2.22813233629683        0.67121455414398
H           -2.15849275614841        2.23745757665326       -2.43924251940962
H           -2.43846001233963        0.56224288064915       -4.22220728311054
H           -2.42900028182171       -1.75904333098826       -4.95515020952284
H           -2.17662063089389       -4.15788141145646       -4.45429383532546
H           -1.66787806101956       -4.89256075982744       -2.15718143349385
H           -1.44534359513122       -3.25721712582026       -0.34857903793135
H            0.69453925233237       -0.67679183735165        3.37320349958560
H           -0.84878184297498       -2.23915313378735        4.42993204901707
H           -2.96492973435687       -3.46426504097147        4.41504788242497
H           -5.05964691408890       -4.09022383565410        3.27396599839140
H           -5.55042252239635       -3.20184895366114        1.02765753410086
H           -3.95124888771911       -1.75040535168170       -0.11468224062779
H            2.13748365205919        0.55537500800903        2.29141804900800
H            2.19579609020090       -0.76972708909740        1.10927468901487
H            2.48027387942826        0.90023061663503        0.59663420787388
