77
 energy: -109.173449831451 gnorm: 0.132668668084 xtb: 6.7.1 (edcfbbe)
C            0.76768800000000       -2.16892300000000        2.86980700000000
C            2.16123100000000       -1.61542400000000        3.00365700000000
C            3.23790300000000       -2.51712800000000        3.07859500000000
C            4.54972900000000       -2.05977700000000        3.19863500000000
C            4.80525600000000       -0.69447000000000        3.24860600000000
C            3.74847000000000        0.21310000000000        3.16737100000000
C            2.42298400000000       -0.23015200000000        3.02351700000000
S            1.10575600000000        0.98104900000000        2.93041400000000
S            1.67876200000000        2.24804700000000        1.41835600000000
P            0.71494800000000        1.50049400000000       -0.30026900000000
N            1.21090800000000        2.10054500000000       -1.76118300000000
C            0.34078300000000        1.89905100000000       -2.92264400000000
C            2.38193000000000        2.97435300000000       -2.03320700000000
C            2.12397000000000        4.37662500000000       -1.45104300000000
C            3.67885800000000        2.37800300000000       -1.44971900000000
C            2.69898800000000        3.18330900000000       -3.54435400000000
N           -0.91605700000000        1.78596500000000       -0.18277100000000
C           -1.28508400000000        3.19657800000000       -0.27157000000000
C           -1.68087800000000        1.02718500000000        0.75211000000000
C           -2.20630500000000        1.62632100000000        1.91227100000000
C           -2.91474800000000        0.89267900000000        2.85672900000000
C           -3.09632600000000       -0.47627500000000        2.69413400000000
C           -3.76072500000000       -1.20618500000000        3.69546600000000
C           -3.92271800000000       -2.58457700000000        3.59261400000000
C           -3.41089300000000       -3.24942900000000        2.49068400000000
C           -2.75467100000000       -2.52901000000000        1.48856600000000
C           -2.59496100000000       -1.11845800000000        1.53455100000000
C           -1.92353500000000       -0.35089000000000        0.50476600000000
C           -1.54477100000000       -0.92355600000000       -0.75704200000000
C           -0.18589900000000       -0.88338800000000       -1.18609100000000
C            0.18775900000000       -1.59184300000000       -2.34543800000000
C           -0.73660800000000       -2.29504500000000       -3.10920700000000
C           -2.08373100000000       -2.28400600000000       -2.76955500000000
C           -3.00555100000000       -2.95394000000000       -3.59378700000000
C           -4.36920500000000       -2.92496500000000       -3.31855200000000
C           -4.82594600000000       -2.21209700000000       -2.22263100000000
C           -3.91338500000000       -1.55052100000000       -1.39542000000000
C           -2.50990600000000       -1.58516700000000       -1.61284800000000
N            0.78516700000000       -0.14544000000000       -0.44336300000000
C            2.14414000000000       -0.67385700000000       -0.50963300000000
H            0.09934000000000       -1.73553300000000        3.62046100000000
H            0.75248600000000       -3.25379100000000        3.02233900000000
H            0.38220700000000       -1.97223100000000        1.86690300000000
H            3.05579400000000       -3.58957500000000        3.04818100000000
H            5.36937900000000       -2.77083400000000        3.26163000000000
H            5.82446500000000       -0.33279200000000        3.35493100000000
H            3.96969000000000        1.27683300000000        3.22017300000000
H            0.00742800000000        2.85299700000000       -3.34390500000000
H            0.83871800000000        1.30383600000000       -3.69416100000000
H           -0.57822600000000        1.36187900000000       -2.67651100000000
H            1.23327300000000        4.83248200000000       -1.89904900000000
H            2.96832500000000        5.04691400000000       -1.65211300000000
H            1.98004600000000        4.36951700000000       -0.36980100000000
H            3.66370200000000        2.26520900000000       -0.36784900000000
H            4.53956100000000        3.02116700000000       -1.67248100000000
H            3.89265700000000        1.39649500000000       -1.88640900000000
H            2.89098600000000        2.23056400000000       -4.05106900000000
H            3.59863800000000        3.79838900000000       -3.67411100000000
H            1.89464100000000        3.70550600000000       -4.07319800000000
H           -0.91620700000000        3.64137900000000       -1.19918800000000
H           -2.37401100000000        3.32451500000000       -0.29504300000000
H           -0.87278400000000        3.78324100000000        0.55585500000000
H           -2.03527200000000        2.67670100000000        2.12681100000000
H           -3.28391400000000        1.40254900000000        3.74339300000000
H           -4.14921100000000       -0.70159100000000        4.57784600000000
H           -4.43359100000000       -3.13527500000000        4.37725600000000
H           -3.51240100000000       -4.32767400000000        2.40349500000000
H           -2.34485900000000       -3.09817700000000        0.65596400000000
H            1.21276700000000       -1.58565600000000       -2.70132900000000
H           -0.38971700000000       -2.81883100000000       -3.99682100000000
H           -2.66483800000000       -3.49829700000000       -4.47225100000000
H           -5.07002900000000       -3.44265400000000       -3.96716300000000
H           -5.88914100000000       -2.15989600000000       -2.00476400000000
H           -4.32373200000000       -0.98125800000000       -0.56289900000000
H            2.60323000000000       -0.49823900000000       -1.48728400000000
H            2.16214200000000       -1.74843400000000       -0.29411200000000
H            2.79513000000000       -0.19821700000000        0.22575100000000
77
 energy: -109.192634999423 gnorm: 0.056748434802 xtb: 6.7.1 (edcfbbe)
C            0.76912021848194       -2.15949616424046        2.86735854912973
C            2.16436313119543       -1.61967681592931        2.99228183408388
C            3.23754557559490       -2.50514358211460        3.07923436334290
C            4.54179385176163       -2.05108744712383        3.19845657301025
C            4.79648822027811       -0.68993920458182        3.24688489509908
C            3.74592392819368        0.20897623008250        3.16395892872252
C            2.43750000393892       -0.24703081464435        3.01312297174863
S            1.10162743810350        0.94188782294951        2.89047574963694
S            1.73304624771577        2.19372898434363        1.38146752214924
P            0.68996476589352        1.48288925214043       -0.34245950770760
N            1.22465595330495        2.11349811556645       -1.78513162089170
C            0.33348642157152        1.90073870771656       -2.92279746372970
C            2.39889694989753        2.99691336650300       -2.03105576082299
C            2.12657520969309        4.38336468667393       -1.44033584099357
C            3.67147297683287        2.37879705759859       -1.43607743743798
C            2.68297548373962        3.17455528094296       -3.53939572784198
N           -0.94168344779187        1.77994404444826       -0.19602884900108
C           -1.28903490326990        3.19775671139753       -0.27544187513058
C           -1.68084731184526        1.00978394620852        0.76167702015049
C           -2.18445841917147        1.62000569029162        1.92239072655126
C           -2.89822972719188        0.90459611226045        2.85148377345645
C           -3.09376944364543       -0.47366548571655        2.69420742584380
C           -3.75865904969750       -1.21082450184294        3.69254771008144
C           -3.91531270403854       -2.57183457719971        3.58091760051131
C           -3.39538106952298       -3.23050998992166        2.46760791844147
C           -2.75130319053077       -2.52417099826987        1.47037017822611
C           -2.59686101680605       -1.12005822765689        1.52876657217066
C           -1.93329041905262       -0.34644411000109        0.51226068407209
C           -1.54248008649409       -0.94035039163130       -0.76271313431168
C           -0.20636762959581       -0.89637860064847       -1.18972035526627
C            0.18345656720406       -1.58283296712442       -2.35145843900328
C           -0.72271543053575       -2.28617338828314       -3.10501090394029
C           -2.08206595813282       -2.28616473892588       -2.76950280090551
C           -3.01081981720011       -2.95247803103876       -3.59119005369571
C           -4.35543435354405       -2.91843710001857       -3.30954881868034
C           -4.80303008940309       -2.19779785355746       -2.20312318557583
C           -3.90631998000747       -1.54907885524781       -1.37622009536809
C           -2.51179805320682       -1.59082992103131       -1.60555382960306
N            0.77346415350785       -0.17412525245831       -0.43893967974533
C            2.14153868044142       -0.68331700345823       -0.50314557836000
H            0.10214775066543       -1.71637850355676        3.60657791728783
H            0.76101668458986       -3.23901870731376        3.01848574244464
H            0.36961307823115       -1.95553835716541        1.87406295492151
H            3.04947367855180       -3.57002588092917        3.05316057583553
H            5.35683731350353       -2.75944767909085        3.26202569081485
H            5.80888549453069       -0.32719396579546        3.35519887957079
H            3.95278156818599        1.27105352640099        3.21002843872327
H            0.00883798746454        2.85228878643816       -3.34744316748131
H            0.83700784627222        1.31352216327654       -3.69142126341936
H           -0.56622605687268        1.35159791185639       -2.63329691551990
H            1.23855816167184        4.82424587639387       -1.89581205817455
H            2.96724145451578        5.04516337851356       -1.64333712373818
H            1.97962573977250        4.34447258058201       -0.36071113953056
H            3.62976729761989        2.26791803914469       -0.35476863406110
H            4.52172993524754        3.02205901940355       -1.66282063673068
H            3.87477646758436        1.40486084098421       -1.88304070717298
H            2.87905625150660        2.22632067058784       -4.03792382120916
H            3.58015261740478        3.78407105811533       -3.64492691556092
H            1.88576151681824        3.69582516334305       -4.06497718486392
H           -0.90981978503801        3.62237693338465       -1.20646415768315
H           -2.37451148609315        3.30654186113364       -0.28317135987388
H           -0.87763963253994        3.78480543049964        0.55213349269880
H           -2.02568232585574        2.67237243876379        2.11080956260968
H           -3.28182032217874        1.41063044830071        3.72676258909926
H           -4.14193879756592       -0.70163695732565        4.56686150390490
H           -4.42539160938012       -3.12512389738839        4.35887370716917
H           -3.49556269667812       -4.30440847853192        2.38330830279583
H           -2.34640306666510       -3.08050491110530        0.63506342348038
H            1.21143457990695       -1.57827064467520       -2.68338863165142
H           -0.37998308182663       -2.81666903050225       -3.98265476445463
H           -2.66356569266579       -3.48978616285629       -4.46366818574752
H           -5.05794379186595       -3.43340022673816       -3.95185069771393
H           -5.86213493124136       -2.14334359388863       -1.98981986509885
H           -4.30335976755107       -0.98354813774472       -0.54342508394268
H            2.60294252230458       -0.51098294533736       -1.48004280255083
H            2.14925665286310       -1.75329336235068       -0.29127520227075
H            2.77104376814089       -0.19114567128378        0.24226749867821
77
 energy: -109.198706944474 gnorm: 0.012702712934 xtb: 6.7.1 (edcfbbe)
C            0.76516868222930       -2.14987798731181        2.85939126009282
C            2.16202906693485       -1.62540779237016        2.97971247979795
C            3.23580127598021       -2.50023253389055        3.07878441414178
C            4.53534608263737       -2.04392548196194        3.19857920403615
C            4.78783059468957       -0.68311572161138        3.24319117540357
C            3.73840538692813        0.21025958833287        3.14855647724015
C            2.44332468921166       -0.26073043587519        2.99265327536895
S            1.09141842714162        0.90910275412699        2.83334422448047
S            1.73883458031139        2.15343669552507        1.33764305975530
P            0.67430700127870        1.46114999982065       -0.37547051329217
N            1.23436904048000        2.11306073269914       -1.80192462219740
C            0.32074793290240        1.89355602478642       -2.92168605859594
C            2.40588063974346        3.00806693727744       -2.03058193707864
C            2.12706062805735        4.38317803287321       -1.42907645768699
C            3.66453392101610        2.38522735157521       -1.42628722522249
C            2.68081779412845        3.17732113631260       -3.52992602906146
N           -0.95524908288463        1.77461668395776       -0.20825820581678
C           -1.29302771499722        3.19627438875799       -0.28428761013993
C           -1.67590481508066        0.99760163597538        0.76499102640097
C           -2.16666605353884        1.62168253487051        1.92464728129119
C           -2.87965261625301        0.91612955759732        2.84621616782597
C           -3.08397021278562       -0.46809731323481        2.69148972341656
C           -3.75225561726802       -1.21292946067176        3.68438276718930
C           -3.90491094822739       -2.56341528629731        3.56154950634309
C           -3.38086023898340       -3.21593214215849        2.43688954760082
C           -2.74530920543301       -2.51654035481714        1.44613225015847
C           -2.58977080806484       -1.11580763141247        1.52354389805208
C           -1.93183736788901       -0.33905196261979        0.51797968218795
C           -1.53394979178601       -0.95111462651942       -0.76668732666684
C           -0.21761819204781       -0.90938330082492       -1.18699006720370
C            0.18640066133525       -1.58214956421955       -2.35279028175408
C           -0.71076778322304       -2.28059072147918       -3.10203218118606
C           -2.07729265475334       -2.28590311581867       -2.76644645086156
C           -3.01471954188354       -2.94859991444776       -3.58359983583208
C           -4.34686144152762       -2.90822810370570       -3.29207460841839
C           -4.78459965605461       -2.18349677167831       -2.17457500026094
C           -3.89539776597415       -1.54569813929092       -1.35134252119265
C           -2.50656504986061       -1.59259941727722       -1.59869679430853
N            0.76666882236188       -0.20469609290032       -0.42041078402570
C            2.13888948848572       -0.70275536977569       -0.48670196411306
H            0.10678657500018       -1.69406525480680        3.59582028964442
H            0.75636918899758       -3.22584406654469        3.00873675352049
H            0.35495083059412       -1.93363681100392        1.87320833008023
H            3.04394188538025       -3.56173627337450        3.06063432464092
H            5.34854384406927       -2.74906372383513        3.26665659921927
H            5.79556429309822       -0.31762414505344        3.35653916495769
H            3.92821854387264        1.27304808991229        3.18977231923291
H           -0.01222396038156        2.83933158673769       -3.34857761009649
H            0.81410432124354        1.31237346319725       -3.69958039373020
H           -0.55892101570476        1.33695740937685       -2.59038766279894
H            1.24040751303785        4.81995356489167       -1.88257497922189
H            2.96402732236283        5.04649120003833       -1.62129095150964
H            1.97885846180831        4.31429844873136       -0.35207840187506
H            3.59442268030334        2.27719497136163       -0.34785752906157
H            4.51498923139989        3.02488595553121       -1.64269622256544
H            3.85793195065897        1.41328180914815       -1.87324916481043
H            2.86951780508008        2.22540937958569       -4.01563519137088
H            3.57614056292461        3.78277043437024       -3.63639389783375
H            1.87989765685183        3.69046538946598       -4.04939742315635
H           -0.90591070104124        3.60303181568931       -1.21718986174840
H           -2.37683802300491        3.29349822026636       -0.28291679763788
H           -0.88114783703139        3.78343142297843        0.54207353955859
H           -1.99550228656742        2.67145809954678        2.09754093892916
H           -3.27369838265197        1.41336795022824        3.71827098020642
H           -4.13135954298256       -0.69652657306055        4.55295158036487
H           -4.41302419753661       -3.12478432131354        4.33107565398022
H           -3.47822295730090       -4.28780268804931        2.35683977255370
H           -2.34506887288156       -3.05576806655617        0.60153387647754
H            1.21638398899135       -1.56533463312536       -2.66784140582666
H           -0.37935921126632       -2.81521251354992       -3.97792300211648
H           -2.65958234672724       -3.47996114455628       -4.45322319565870
H           -5.05691106587349       -3.41693509228758       -3.92624747000914
H           -5.84183665773898       -2.12495106617290       -1.96643617896219
H           -4.27321636410903       -0.98559673343560       -0.51025548428155
H            2.60665896757397       -0.52671400403957       -1.45924520535782
H            2.13900674636432       -1.77042938651154       -0.27925947467491
H            2.74545189584958       -0.19964852609863        0.26877243506984
77
 energy: -109.200439278587 gnorm: 0.011367194664 xtb: 6.7.1 (edcfbbe)
C            0.75523055818103       -2.14398580733799        2.84688163323263
C            2.15388189005217       -1.62762138182055        2.96227998687917
C            3.23030552646763       -2.49891478872541        3.07739874243246
C            4.52754686568431       -2.03539551271883        3.20048390678478
C            4.77579136964997       -0.67289874200239        3.23635685871306
C            3.72360010579002        0.21741603089152        3.12451646878256
C            2.43344118631763       -0.26320446945991        2.96149378927377
S            1.06822064108660        0.89213049708814        2.78663214882209
S            1.75374522522845        2.14139185062005        1.31161722483879
P            0.67725126519164        1.44948281970936       -0.38719747592436
N            1.23762854001861        2.10567017879477       -1.80820078710860
C            0.31244243865318        1.88426911902250       -2.92135062539912
C            2.40325594929634        3.00912325390098       -2.02776913127737
C            2.11784724565946        4.37712779559859       -1.41245836826149
C            3.65664593888190        2.38703847894432       -1.41394699409682
C            2.67410023300565        3.17798864249129       -3.52521734799264
N           -0.94972334673288        1.77282337024976       -0.21679706220989
C           -1.29061197429588        3.19313107101906       -0.29861947832772
C           -1.66353684919804        0.99844051555331        0.76248534446124
C           -2.14673763725682        1.62685032195940        1.92477918413704
C           -2.86136255413793        0.92103289799796        2.84484004042661
C           -3.07009113717427       -0.46362659394441        2.68677589411110
C           -3.74145551813063       -1.21368395090440        3.67443536190142
C           -3.89351648069390       -2.56355452581927        3.54220743612236
C           -3.36959914551300       -3.21255335704204        2.41312807662466
C           -2.73526133326183       -2.50968043581512        1.42682981904830
C           -2.57761518537640       -1.10969518727248        1.51926910117429
C           -1.92022853910933       -0.33349899805428        0.51790271252143
C           -1.52307033295749       -0.95135570685135       -0.76766393936804
C           -0.21057936682117       -0.91471206144161       -1.18521800416790
C            0.19518568587305       -1.58385409074316       -2.35460821695660
C           -0.70580307535544       -2.27796355862870       -3.10306100409740
C           -2.07270962850846       -2.28205668875985       -2.76217923346122
C           -3.01766181463259       -2.94195830921990       -3.57392655464212
C           -4.34778547150582       -2.89597284415741       -3.27272936470397
C           -4.77847022105437       -2.17186807779118       -2.14977727141314
C           -3.88398348224523       -1.54011175213251       -1.33065366287047
C           -2.49773558559176       -1.59003197395819       -1.59402390149368
N            0.77083452654932       -0.21893154523515       -0.40497031280998
C            2.14064060629000       -0.72227356941945       -0.46340276754908
H            0.10660302730153       -1.68026575610909        3.58788207044577
H            0.73847239088699       -3.21952415372925        2.99462724935416
H            0.33987770961952       -1.91908655658130        1.86436754191495
H            3.04046002227417       -3.56145324257939        3.07063871160669
H            5.34286875000339       -2.73702208205088        3.27843063711121
H            5.78160351044785       -0.30353340103285        3.35614803272022
H            3.90388060461878        1.28197623086347        3.15753553983421
H           -0.03561269869117        2.82677556011697       -3.34461119847450
H            0.79458382997557        1.30610889075860       -3.70935407717599
H           -0.55586648616532        1.32250209233453       -2.57234122705905
H            1.23229209228121        4.81909156632555       -1.86242673540446
H            2.95499618520353        5.04455514598629       -1.59188157230498
H            1.96826975838056        4.29221546551127       -0.33687525819591
H            3.57185849271833        2.28126566427328       -0.33685136862848
H            4.51015324555184        3.02609095152043       -1.61946420077681
H            3.85118847816557        1.41446430364846       -1.85794604607217
H            2.86091818102223        2.22316742934612       -4.00695305733601
H            3.56868116554126        3.78364807185088       -3.63594065967373
H            1.86913082077466        3.68846215574991       -4.04214073560993
H           -0.90517652245211        3.59282576768710       -1.23399602095584
H           -2.37504747195573        3.28521793622914       -0.29466055899253
H           -0.87877396799790        3.78384254883728        0.52470618372075
H           -1.96487115842434        2.67529396536563        2.09232592245984
H           -3.25812629079183        1.41288531274967        3.71897779046664
H           -4.12087404262421       -0.69581412510286        4.54233740112165
H           -4.40324524995239       -3.13243537454090        4.30435286882161
H           -3.47065329412495       -4.28363536353451        2.32963533583865
H           -2.33865644288981       -3.03582789448390        0.57184166726338
H            1.22664486553260       -1.56166319507268       -2.66291103001704
H           -0.38354723511903       -2.81397872563612       -3.98198146181325
H           -2.66297729116130       -3.47275966274108       -4.44441365477217
H           -5.06644306677796       -3.40059579341069       -3.89962387198930
H           -5.83477860953411       -2.11338836192889       -1.93781752374070
H           -4.24575786971704       -0.98407657014246       -0.47927577141792
H            2.61892044418656       -0.54454415142313       -1.43008102527917
H            2.13161491454862       -1.79095610622709       -0.26007406937030
H            2.73733109102020       -0.22434245741258        0.30127194622443
77
 energy: -109.201685427152 gnorm: 0.009256848843 xtb: 6.7.1 (edcfbbe)
C            0.73952006548312       -2.13998930691154        2.83082787239710
C            2.14021247430600       -1.63152734201888        2.94731236407299
C            3.21982246468704       -2.49825632305866        3.07656425757067
C            4.51400119698899       -2.02423757987467        3.20251012614609
C            4.75665814935957       -0.66000767773172        3.22182448284954
C            3.70114053865498        0.22547013734818        3.09313963009987
C            2.41515842925161       -0.26623747032551        2.93504150983705
S            1.03998878220844        0.87657083784491        2.75724835852805
S            1.72959958233499        2.14231010494970        1.30108157764162
P            0.68691557994463        1.43856301923163       -0.39910439924085
N            1.23812145395793        2.09470257190066       -1.81695747783690
C            0.30355510614488        1.87121694281638       -2.92443037931411
C            2.39678173032438        3.00706928420780       -2.02451043484931
C            2.10253185374609        4.36688693994993       -1.39312440552967
C            3.65020129258238        2.38849984749350       -1.40688930557250
C            2.66559332700296        3.18200129998455       -3.51982296112101
N           -0.93608874164237        1.77133046338881       -0.22617528671695
C           -1.28487495149952        3.18820664704173       -0.32111390545324
C           -1.64365318005965        1.00314477968535        0.75936210701730
C           -2.11924589803083        1.63199537978069        1.92595492553056
C           -2.83338963530962        0.92327546899261        2.84569849438253
C           -3.04719720974228       -0.46044318263996        2.68193656268982
C           -3.72354620614546       -1.21632256610549        3.66225620520033
C           -3.87821680043891       -2.56570564323815        3.51766713893888
C           -3.35614913500336       -3.21119598908527        2.38528100444223
C           -2.71792141536990       -2.50273218974309        1.40615480097409
C           -2.55714939034049       -1.10374246016552        1.51497427159397
C           -1.89996273665172       -0.32770345087089        0.51673687911522
C           -1.50788366005888       -0.94672443392112       -0.76838716047817
C           -0.19553272257444       -0.91799513048166       -1.18495611375314
C            0.20693052138863       -1.58578765037489       -2.35766108602065
C           -0.70237791860223       -2.27240897409774       -3.10536136601123
C           -2.06835024258492       -2.27236092769700       -2.75746652516233
C           -3.02308098584411       -2.92984498350320       -3.56077924186094
C           -4.35113832291414       -2.87872244312779       -3.24609468267678
C           -4.77328872469727       -2.15699635337147       -2.11796731070377
C           -3.86964500632566       -1.52838216103381       -1.30709345259531
C           -2.48656409503092       -1.58139453401173       -1.58923030464222
N            0.78055793121123       -0.23081559869642       -0.38896398019976
C            2.14527399085278       -0.74821400059244       -0.42965926319957
H            0.10058074718066       -1.67497658292210        3.58033715728719
H            0.71171441032848       -3.21656615354648        2.96924158823597
H            0.32008358307542       -1.90008229743379        1.85312513621681
H            3.03477122399548       -3.56225720456283        3.08321232961189
H            5.33293202552844       -2.72052357277789        3.29700347603406
H            5.76002770592190       -0.28466913727228        3.34744088798625
H            3.87256580374534        1.29218937530756        3.11032259941277
H           -0.06191462585770        2.81131820814805       -3.34008521960907
H            0.77750870617537        1.29925076272066       -3.72243048986852
H           -0.55272071741890        1.30062285371589       -2.56403602388465
H            1.21819383815486        4.81618920576646       -1.83884737437901
H            2.94028804324127        5.03985212840491       -1.55503445805644
H            1.94944110641123        4.26414387503555       -0.31965543403148
H            3.55868334370534        2.28560624931089       -0.33147479662442
H            4.50525554006239        3.02883016095152       -1.60371679204344
H            3.84859812619813        1.41450716383580       -1.84636627321719
H            2.85115076809341        2.22576616076473       -4.00082480170122
H            3.55868863360114        3.78969440222091       -3.63560360028083
H            1.85503685684017        3.68975259284303       -4.03245687478664
H           -0.90593885467997        3.58125036422555       -1.26128193494573
H           -2.37042201754038        3.27314803321853       -0.31455980126016
H           -0.87420220431887        3.78821338011270        0.49565377496379
H           -1.92666151131598        2.67894306591395        2.09086971172003
H           -3.22780855534895        1.41007791311861        3.72426626602614
H           -4.10499424373146       -0.70077641212666        4.53114669025617
H           -4.39095067889638       -3.14263467571647        4.27148952393813
H           -3.46387683594555       -4.28120390448183        2.29453395457354
H           -2.32239385592396       -3.01494441254529        0.54196457823964
H            1.23987385565396       -1.56270159978097       -2.66093206787214
H           -0.39003842952415       -2.80867572092072       -3.98854121670486
H           -2.67467259259542       -3.46289837376724       -4.43294365902306