      -----------------------------------------------------------      
     |                   =====================                   |     
     |                           x T B                           |     
     |                   =====================                   |     
     |                         S. Grimme                         |     
     |          Mulliken Center for Theoretical Chemistry        |     
     |                    University of Bonn                     |     
      -----------------------------------------------------------      

   * xtb version 6.7.1 (edcfbbe) compiled by 'conda@3ef47c1a292c' on 2024-11-25

   xtb is free software: you can redistribute it and/or modify it under
   the terms of the GNU Lesser General Public License as published by
   the Free Software Foundation, either version 3 of the License, or
   (at your option) any later version.
   
   xtb is distributed in the hope that it will be useful,
   but WITHOUT ANY WARRANTY; without even the implied warranty of
   MERCHANTABILITY or FITNESS FOR A PARTICULAR PURPOSE.  See the
   GNU Lesser General Public License for more details.
   
   Cite this work as:
   * C. Bannwarth, E. Caldeweyher, S. Ehlert, A. Hansen, P. Pracht,
     J. Seibert, S. Spicher, S. Grimme, WIREs Comput. Mol. Sci., 2020, 11,
     e01493. DOI: 10.1002/wcms.1493
   
   for GFN2-xTB:
   * C. Bannwarth, S. Ehlert and S. Grimme., J. Chem. Theory Comput., 2019,
     15, 1652-1671. DOI: 10.1021/acs.jctc.8b01176
   for GFN1-xTB:
   * S. Grimme, C. Bannwarth, P. Shushkov, J. Chem. Theory Comput., 2017,
     13, 1989-2009. DOI: 10.1021/acs.jctc.7b00118
   for GFN0-xTB:
   * P. Pracht, E. Caldeweyher, S. Ehlert, S. Grimme, ChemRxiv, 2019, preprint.
     DOI: 10.26434/chemrxiv.8326202.v1
   for GFN-FF:
   * S. Spicher and S. Grimme, Angew. Chem. Int. Ed., 2020, 59, 15665-15673.
     DOI: 10.1002/anie.202004239
   
   for ALPB and GBSA implicit solvation:
   * S. Ehlert, M. Stahn, S. Spicher, S. Grimme, J. Chem. Theory Comput.,
     2021, 17, 4250-4261. DOI: 10.1021/acs.jctc.1c00471
   
   for ddCOSMO and CPCM-X implicit solvation:
   * M. Stahn, S. Ehlert, S. Grimme, J. Phys. Chem. A,
     2023, XX, XXXX-XXXX. DOI: 10.1021/acs.jpca.3c04382
   
   for DFT-D4:
   * E. Caldeweyher, C. Bannwarth and S. Grimme, J. Chem. Phys., 2017,
     147, 034112. DOI: 10.1063/1.4993215
   * E. Caldeweyher, S. Ehlert, A. Hansen, H. Neugebauer, S. Spicher,
     C. Bannwarth and S. Grimme, J. Chem. Phys., 2019, 150, 154122.
     DOI: 10.1063/1.5090222
   * E. Caldeweyher, J.-M. Mewes, S. Ehlert and S. Grimme, Phys. Chem. Chem. Phys.
     2020, 22, 8499-8512. DOI: 10.1039/D0CP00502A
   
   for sTDA-xTB:
   * S. Grimme and C. Bannwarth, J. Chem. Phys., 2016, 145, 054103.
     DOI: 10.1063/1.4959605
   
   in the mass-spec context:
   * V. Asgeirsson, C. Bauer and S. Grimme, Chem. Sci., 2017, 8, 4879.
     DOI: 10.1039/c7sc00601b
   * J. Koopman and S. Grimme, ACS Omega 2019, 4, 12, 15120-15133.
     DOI: 10.1021/acsomega.9b02011
   
   for metadynamics refer to:
   * S. Grimme, J. Chem. Theory Comput., 2019, 155, 2847-2862
     DOI: 10.1021/acs.jctc.9b00143
   
   for SPH calculations refer to:
   * S. Spicher and S. Grimme, J. Chem. Theory Comput., 2021, 17, 1701-1714
     DOI: 10.1021/acs.jctc.0c01306
   
   for ONIOM refer to:
   * C. Plett, A. Katbashev, S. Ehlert, S. Grimme, M. Bursch,
     Phys. Chem. Chem. Phys., 2023, 25, 17860-17868. DOI: 10.1039/D3CP02178E
   
   for DIPRO refer to:
   * J. Kohn, N. Gildemeister, S. Grimme, D. Fazzi, A. Hansen,
     J. Chem. Phys., 2023, just accepted.
   
   for PTB refer to:
   * S. Grimme, M. Mueller, A. Hansen, J. Chem. Phys., 2023, 158, 124111.
     DOI: 10.1063/5.0137838
   
   with help from (in alphabetical order)
   P. Atkinson, C. Bannwarth, F. Bohle, G. Brandenburg, E. Caldeweyher
   M. Checinski, S. Dohm, S. Ehlert, S. Ehrlich, I. Gerasimov, C. Hölzer
   A. Katbashev, J. Kohn, J. Koopman, C. Lavigne, S. Lehtola, F. März, M. Müller,
   F. Musil, H. Neugebauer, J. Pisarek, C. Plett, P. Pracht, F. Pultar,
   J. Seibert, P. Shushkov, S. Spicher, M. Stahn, M. Steiner, T. Strunk,
   J. Stückrath, T. Rose, and J. Unsleber
   
 * started run on 2024/12/16 at 16:34:30.178     
   ID    Z sym.   atoms
    1    6 C      1, 3-22, 24, 28-34, 39-52
    2    7 N      2, 23, 38
    3   15 P      25
    4   16 S      26, 27
    5    9 F      35-37
    6    1 H      53-84

           -------------------------------------------------
          |                Calculation Setup                |
           -------------------------------------------------

          program call               : xtb --gfn2 --opt extreme -P 8 --charge 1 molecule.xyz
          hostname                   : node05
          coordinate file            : molecule.xyz
          omp threads                :                     8


           -------------------------------------------------
          |                 G F N 2 - x T B                 |
           -------------------------------------------------

        Reference                      10.1021/acs.jctc.8b01176
      * Hamiltonian:
        H0-scaling (s, p, d)           1.850000    2.230000    2.230000
        zeta-weighting                 0.500000
      * Dispersion:
        s8                             2.700000
        a1                             0.520000
        a2                             5.000000
        s9                             5.000000
      * Repulsion:
        kExp                           1.500000    1.000000
        rExp                           1.000000
      * Coulomb:
        alpha                          2.000000
        third order                    shell-resolved
        anisotropic                    true
        a3                             3.000000
        a5                             4.000000
        cn-shift                       1.200000
        cn-exp                         4.000000
        max-rad                        5.000000


          ...................................................
          :                      SETUP                      :
          :.................................................:
          :  # basis functions                 258          :
          :  # atomic orbitals                 255          :
          :  # shells                          139          :
          :  # electrons                       256          :
          :  max. iterations                   250          :
          :  Hamiltonian                  GFN2-xTB          :
          :  restarted?                      false          :
          :  GBSA solvation                  false          :
          :  PC potential                    false          :
          :  electronic temp.          300.0000000     K    :
          :  accuracy                    1.0000000          :
          :  -> integral cutoff          0.2500000E+02      :
          :  -> integral neglect         0.1000000E-07      :
          :  -> SCF convergence          0.1000000E-05 Eh   :
          :  -> wf. convergence          0.1000000E-03 e    :
          :  Broyden damping             0.4000000          :
          :  net charge                          1          :
          :  unpaired electrons                  0          :
          ...................................................

 iter      E             dE          RMSdq      gap      omega  full diag
   1   -141.9163300 -0.141916E+03  0.485E+00    1.67       0.0  T
   2   -142.1097167 -0.193387E+00  0.295E+00    1.85       1.0  T
   3   -142.0556362  0.540806E-01  0.144E+00    1.53       1.0  T
   4   -142.1209345 -0.652983E-01  0.634E-01    1.23       1.0  T
   5   -142.1454122 -0.244777E-01  0.265E-01    1.36       1.0  T
   6   -142.1472420 -0.182978E-02  0.145E-01    1.33       1.0  T
   7   -142.1491413 -0.189933E-02  0.440E-02    1.35       1.0  T
   8   -142.1491890 -0.476797E-04  0.241E-02    1.36       1.0  T
   9   -142.1492068 -0.178543E-04  0.112E-02    1.36       1.0  T
  10   -142.1492099 -0.311815E-05  0.472E-03    1.36       2.3  T
  11   -142.1492103 -0.353994E-06  0.227E-03    1.36       4.8  T
  12   -142.1492105 -0.209329E-06  0.111E-03    1.36       9.8  T
  13   -142.1492105 -0.781554E-08  0.604E-04    1.36      18.1  T
  14   -142.1492105 -0.100758E-07  0.297E-04    1.36      36.8  T

   *** convergence criteria satisfied after 14 iterations ***

         #    Occupation            Energy/Eh            Energy/eV
      -------------------------------------------------------------
         1        2.0000           -0.9581066             -26.0714
       ...           ...                  ...                  ...
       122        2.0000           -0.4997520             -13.5989
       123        2.0000           -0.4969617             -13.5230
       124        2.0000           -0.4908791             -13.3575
       125        2.0000           -0.4867018             -13.2438
       126        2.0000           -0.4728034             -12.8656
       127        2.0000           -0.4704656             -12.8020
       128        2.0000           -0.4571645             -12.4401 (HOMO)
       129                         -0.4073170             -11.0837 (LUMO)
       130                         -0.3748038             -10.1989
       131                         -0.3716914             -10.1142
       132                         -0.3662371              -9.9658
       133                         -0.3623971              -9.8613
       ...                                ...                  ...
       255                          1.0343209              28.1453
      -------------------------------------------------------------
                  HL-Gap            0.0498475 Eh            1.3564 eV
             Fermi-level           -0.4322407 Eh          -11.7619 eV

 SCC (total)                   0 d,  0 h,  0 min,  1.731 sec
 SCC setup                      ...        0 min,  0.000 sec (  0.022%)
 Dispersion                     ...        0 min,  0.002 sec (  0.091%)
 classical contributions        ...        0 min,  0.000 sec (  0.007%)
 integral evaluation            ...        0 min,  0.013 sec (  0.729%)
 iterations                     ...        0 min,  1.579 sec ( 91.229%)
 molecular gradient             ...        0 min,  0.114 sec (  6.569%)
 printout                       ...        0 min,  0.023 sec (  1.352%)

         :::::::::::::::::::::::::::::::::::::::::::::::::::::
         ::                     SUMMARY                     ::
         :::::::::::::::::::::::::::::::::::::::::::::::::::::
         :: total energy            -140.071592413541 Eh    ::
         :: gradient norm              0.145165026396 Eh/a0 ::
         :: HOMO-LUMO gap              1.356419621787 eV    ::
         ::.................................................::
         :: SCC energy              -142.141588620161 Eh    ::
         :: -> isotropic ES            0.120463131597 Eh    ::
         :: -> anisotropic ES         -0.001258366285 Eh    ::
         :: -> anisotropic XC          0.060965532962 Eh    ::
         :: -> dispersion             -0.145726239089 Eh    ::
         :: repulsion energy           2.069996206619 Eh    ::
         :: add. restraining           0.000000000000 Eh    ::
         :: total charge               1.000000000000 e     ::
         :::::::::::::::::::::::::::::::::::::::::::::::::::::

      ----------------------------------------------------------- 
     |                   =====================                   |
     |                        A N C O P T                        |
     |                   =====================                   |
     |               Approximate Normal Coordinate               |
     |                Rational Function Optimizer                |
      ----------------------------------------------------------- 
      ----------------------------------------------------------- 
     |                   =====================                   |
     |                        A N C O P T                        |
     |                   =====================                   |
     |               Approximate Normal Coordinate               |
     |                Rational Function Optimizer                |
      ----------------------------------------------------------- 

          ...................................................
          :                      SETUP                      :
          :.................................................:
          :   optimization level           extreme          :
          :   max. optcycles                  1680          :
          :   ANC micro-cycles                  20          :
          :   degrees of freedom               246          :
          :.................................................:
          :   RF solver                   davidson          :
          :   write xtbopt.log                true          :
          :   linear?                        false          :
          :   energy convergence         0.5000000E-07 Eh   :
          :   grad. convergence          0.5000000E-04 Eh/α :
          :   maxmium RF displ.          1.0000000          :
          :   Hlow (freq-cutoff)         0.1000000E-01      :
          :   Hmax (freq-cutoff)         5.0000000          :
          :   S6 in model hess.         20.0000000          :
          ...................................................

generating ANC from exact Hessian ...
Using Lindh-Hessian (1995)
 Shifting diagonal of input Hessian by    9.8942933573691518E-003
 Lowest  eigenvalues of input Hessian
    0.000000    0.000000    0.000000    0.000000    0.000000    0.000000
    0.010000    0.010064    0.010103    0.010195    0.010234    0.010404
    0.010534    0.010789    0.010863    0.011199    0.011273    0.011367
 Highest eigenvalues
    1.986527    1.993708    2.024743    2.027152    2.066526    2.073120


........................................................................
.............................. CYCLE    1 ..............................
........................................................................

 iter      E             dE          RMSdq      gap      omega  full diag
   1   -142.1492105 -0.142149E+03  0.171E-04    1.36       0.0  T
   2   -142.1492105 -0.128864E-09  0.132E-04    1.36      82.4  T
   3   -142.1492105 -0.222542E-09  0.102E-04    1.36     106.8  T
     SCC iter.                  ...        0 min,  0.203 sec
     gradient                   ...        0 min,  0.113 sec
 * total energy  :  -140.0715924 Eh     change       -0.2290619E-08 Eh
   gradient norm :     0.1451660 Eh/α   predicted     0.0000000E+00 (-100.00%)
   displ. norm   :     0.3960118 α      lambda       -0.3176727E-01
   maximum displ.:     0.0982008 α      in ANC's #51, #65, #27, ...

........................................................................
.............................. CYCLE    2 ..............................
........................................................................

 iter      E             dE          RMSdq      gap      omega  full diag
   1   -142.2456129 -0.142246E+03  0.293E-01    1.48       0.0  T
   2   -142.2458114 -0.198513E-03  0.151E-01    1.56       1.0  T
   3   -142.2456535  0.157962E-03  0.583E-02    1.60       1.0  T
   4   -142.2458455 -0.192040E-03  0.244E-02    1.61       1.0  T
   5   -142.2458670 -0.215356E-04  0.117E-02    1.61       1.0  T
   6   -142.2458751 -0.804160E-05  0.446E-03    1.61       2.4  T
   7   -142.2458760 -0.911489E-06  0.240E-03    1.60       4.6  T
   8   -142.2458761 -0.119802E-06  0.130E-03    1.60       8.4  T
   9   -142.2458761 -0.418333E-07  0.725E-04    1.60      15.0  T
  10   -142.2458761 -0.205637E-08  0.450E-04    1.60      24.3  T
     SCC iter.                  ...        0 min,  1.280 sec
     gradient                   ...        0 min,  0.117 sec
 * total energy  :  -140.0945203 Eh     change       -0.2292789E-01 Eh
   gradient norm :     0.0670346 Eh/α   predicted    -0.1840057E-01 ( -19.75%)
   displ. norm   :     0.4152263 α      lambda       -0.1320108E-01
   maximum displ.:     0.1188370 α      in ANC's #51, #18, #8, ...

........................................................................
.............................. CYCLE    3 ..............................
........................................................................

 iter      E             dE          RMSdq      gap      omega  full diag
   1   -142.3051155 -0.142305E+03  0.262E-01    1.76       0.0  T
   2   -142.3052326 -0.117085E-03  0.133E-01    1.81       1.0  T
   3   -142.3051389  0.936677E-04  0.480E-02    1.84       1.0  T
   4   -142.3052571 -0.118120E-03  0.170E-02    1.85       1.0  T
   5   -142.3052675 -0.104750E-04  0.748E-03    1.84       1.5  T
   6   -142.3052709 -0.337769E-05  0.310E-03    1.84       3.5  T
   7   -142.3052714 -0.474308E-06  0.142E-03    1.84       7.7  T
   8   -142.3052714 -0.288596E-07  0.693E-04    1.84      15.7  T
   9   -142.3052714 -0.247230E-07  0.320E-04    1.84      34.1  T
     SCC iter.                  ...        0 min,  1.207 sec
     gradient                   ...        0 min,  0.118 sec
 * total energy  :  -140.1026669 Eh     change       -0.8146602E-02 Eh
   gradient norm :     0.0199487 Eh/α   predicted    -0.7738561E-02 (  -5.01%)
   displ. norm   :     0.3931476 α      lambda       -0.3064089E-02
   maximum displ.:     0.1785456 α      in ANC's #8, #18, #16, ...

........................................................................
.............................. CYCLE    4 ..............................
........................................................................

 iter      E             dE          RMSdq      gap      omega  full diag
   1   -142.3117884 -0.142312E+03  0.143E-01    1.90       0.0  T
   2   -142.3118216 -0.331466E-04  0.752E-02    1.92       1.0  T
   3   -142.3117932  0.283427E-04  0.277E-02    1.93       1.0  T
   4   -142.3118256 -0.323408E-04  0.104E-02    1.94       1.0  T
   5   -142.3118311 -0.553843E-05  0.445E-03    1.94       2.5  T
   6   -142.3118318 -0.714459E-06  0.257E-03    1.94       4.2  T
   7   -142.3118321 -0.263599E-06  0.109E-03    1.94      10.0  T
   8   -142.3118321 -0.243074E-07  0.621E-04    1.94      17.6  T
   9   -142.3118321 -0.443330E-08  0.350E-04    1.94      31.2  T
     SCC iter.                  ...        0 min,  1.223 sec
     gradient                   ...        0 min,  0.116 sec
 * total energy  :  -140.1049219 Eh     change       -0.2254990E-02 Eh
   gradient norm :     0.0161730 Eh/α   predicted    -0.1768875E-02 ( -21.56%)
   displ. norm   :     0.4909484 α      lambda       -0.2322884E-02
   maximum displ.:     0.2484681 α      in ANC's #8, #18, #16, ...

........................................................................
.............................. CYCLE    5 ..............................
........................................................................

 iter      E             dE          RMSdq      gap      omega  full diag
   1   -142.3129392 -0.142313E+03  0.118E-01    1.96       0.0  T
   2   -142.3129629 -0.236855E-04  0.658E-02    1.97       1.0  T
   3   -142.3129355  0.273383E-04  0.271E-02    1.97       1.0  T
   4   -142.3129700 -0.344647E-04  0.784E-03    1.97       1.4  T
   5   -142.3129720 -0.197400E-05  0.363E-03    1.97       3.0  T
   6   -142.3129724 -0.385051E-06  0.190E-03    1.97       5.7  T
   7   -142.3129725 -0.187821E-06  0.787E-04    1.97      13.9  T
   8   -142.3129726 -0.892476E-08  0.398E-04    1.97      27.4  T
     SCC iter.                  ...        0 min,  1.211 sec
     gradient                   ...        0 min,  0.117 sec
 * total energy  :  -140.1065654 Eh     change       -0.1643479E-02 Eh
   gradient norm :     0.0109714 Eh/α   predicted    -0.1441386E-02 ( -12.30%)
   displ. norm   :     0.4785066 α      lambda       -0.1398783E-02
   maximum displ.:     0.2447268 α      in ANC's #8, #18, #9, ...

........................................................................
.............................. CYCLE    6 ..............................
........................................................................

 iter      E             dE          RMSdq      gap      omega  full diag
   1   -142.3118422 -0.142312E+03  0.101E-01    1.97       0.0  T
   2   -142.3118581 -0.159542E-04  0.555E-02    1.97       1.0  T
   3   -142.3118495  0.860444E-05  0.180E-02    1.98       1.0  T
   4   -142.3118583 -0.877484E-05  0.878E-03    1.98       1.2  T
   5   -142.3118617 -0.338606E-05  0.316E-03    1.98       3.5  T
   6   -142.3118619 -0.215268E-06  0.184E-03    1.98       5.9  T
   7   -142.3118621 -0.163219E-06  0.893E-04    1.98      12.2  T
   8   -142.3118621 -0.139889E-07  0.550E-04    1.98      19.8  T
     SCC iter.                  ...        0 min,  0.912 sec
     gradient                   ...        0 min,  0.115 sec
 * total energy  :  -140.1075891 Eh     change       -0.1023732E-02 Eh
   gradient norm :     0.0088350 Eh/α   predicted    -0.8595365E-03 ( -16.04%)
   displ. norm   :     0.4896643 α      lambda       -0.1075314E-02
   maximum displ.:     0.2296333 α      in ANC's #8, #9, #18, ...

........................................................................
.............................. CYCLE    7 ..............................
........................................................................

 iter      E             dE          RMSdq      gap      omega  full diag
   1   -142.3128151 -0.142313E+03  0.941E-02    1.97       0.0  T
   2   -142.3128216 -0.654633E-05  0.528E-02    1.97       1.0  T
   3   -142.3128142  0.734996E-05  0.144E-02    1.97       1.0  T
   4   -142.3128228 -0.855819E-05  0.565E-03    1.97       1.9  T
   5   -142.3128236 -0.790528E-06  0.201E-03    1.97       5.4  T
   6   -142.3128239 -0.294580E-06  0.693E-04    1.97      15.7  T
   7   -142.3128239 -0.278209E-07  0.347E-04    1.97      31.4  T
     SCC iter.                  ...        0 min,  0.867 sec
     gradient                   ...        0 min,  0.115 sec
 * total energy  :  -140.1083990 Eh     change       -0.8099116E-03 Eh
   gradient norm :     0.0104089 Eh/α   predicted    -0.6665758E-03 ( -17.70%)
   displ. norm   :     0.4788300 α      lambda       -0.8214272E-03
   maximum displ.:     0.1920925 α      in ANC's #9, #8, #4, ...

........................................................................
.............................. CYCLE    8 ..............................
........................................................................

 iter      E             dE          RMSdq      gap      omega  full diag
   1   -142.3154793 -0.142315E+03  0.890E-02    1.97       0.0  T
   2   -142.3154841 -0.476691E-05  0.502E-02    1.97       1.0  T
   3   -142.3154802  0.384107E-05  0.105E-02    1.96       1.0  T
   4   -142.3154837 -0.343808E-05  0.549E-03    1.96       2.0  T
   5   -142.3154853 -0.167347E-05  0.176E-03    1.96       6.2  T
   6   -142.3154855 -0.122999E-06  0.874E-04    1.96      12.5  T
   7   -142.3154855 -0.302122E-07  0.553E-04    1.96      19.7  T
     SCC iter.                  ...        0 min,  0.644 sec
     gradient                   ...        0 min,  0.114 sec
 * total energy  :  -140.1090205 Eh     change       -0.6214609E-03 Eh
   gradient norm :     0.0091058 Eh/α   predicted    -0.5048843E-03 ( -18.76%)
   displ. norm   :     0.4455785 α      lambda       -0.5908144E-03
   maximum displ.:     0.2003352 α      in ANC's #4, #9, #5, ...

........................................................................
.............................. CYCLE    9 ..............................
........................................................................

 iter      E             dE          RMSdq      gap      omega  full diag
   1   -142.3174744 -0.142317E+03  0.768E-02    1.97       0.0  T
   2   -142.3174778 -0.341557E-05  0.441E-02    1.97       1.0  T
   3   -142.3174706  0.725270E-05  0.114E-02    1.97       1.0  T
   4   -142.3174786 -0.801001E-05  0.409E-03    1.97       2.7  T
   5   -142.3174792 -0.616665E-06  0.174E-03    1.97       6.3  T
   6   -142.3174794 -0.161298E-06  0.836E-04    1.97      13.0  T
   7   -142.3174794 -0.449020E-07  0.397E-04    1.97      27.5  T
     SCC iter.                  ...        0 min,  1.088 sec
     gradient                   ...        0 min,  0.146 sec
 * total energy  :  -140.1094776 Eh     change       -0.4571310E-03 Eh
   gradient norm :     0.0057945 Eh/α   predicted    -0.3540676E-03 ( -22.55%)
   displ. norm   :     0.4328318 α      lambda       -0.4751078E-03
   maximum displ.:     0.2139788 α      in ANC's #4, #9, #5, ...

........................................................................
.............................. CYCLE   10 ..............................
........................................................................

 iter      E             dE          RMSdq      gap      omega  full diag
   1   -142.3191014 -0.142319E+03  0.704E-02    1.98       0.0  T
   2   -142.3191039 -0.251850E-05  0.407E-02    1.97       1.0  T
   3   -142.3190970  0.693248E-05  0.104E-02    1.97       1.0  T
   4   -142.3191047 -0.770280E-05  0.346E-03    1.97       3.2  T
   5   -142.3191051 -0.407083E-06  0.160E-03    1.97       6.8  T
   6   -142.3191053 -0.149736E-06  0.745E-04    1.97      14.7  T
   7   -142.3191053 -0.290376E-07  0.390E-04    1.97      28.0  T
     SCC iter.                  ...        0 min,  0.813 sec
     gradient                   ...        0 min,  0.171 sec
 * total energy  :  -140.1098545 Eh     change       -0.3769080E-03 Eh
   gradient norm :     0.0045602 Eh/α   predicted    -0.2820596E-03 ( -25.16%)
   displ. norm   :     0.4477870 α      lambda       -0.4232387E-03
   maximum displ.:     0.2313814 α      in ANC's #4, #5, #9, ...

........................................................................
.............................. CYCLE   11 ..............................
........................................................................

 iter      E             dE          RMSdq      gap      omega  full diag
   1   -142.3189492 -0.142319E+03  0.755E-02    1.98       0.0  T
   2   -142.3189527 -0.354025E-05  0.425E-02    1.98       1.0  T
   3   -142.3189443  0.839631E-05  0.127E-02    1.98       1.0  T
   4   -142.3189534 -0.907639E-05  0.487E-03    1.98       2.2  T
   5   -142.3189541 -0.754359E-06  0.216E-03    1.98       5.0  T
   6   -142.3189545 -0.402632E-06  0.608E-04    1.98      17.9  T
   7   -142.3189546 -0.189831E-07  0.292E-04    1.98      37.3  T
     SCC iter.                  ...        0 min,  1.088 sec
     gradient                   ...        0 min,  0.113 sec
 * total energy  :  -140.1101966 Eh     change       -0.3420538E-03 Eh
   gradient norm :     0.0063101 Eh/α   predicted    -0.2540531E-03 ( -25.73%)
   displ. norm   :     0.4664974 α      lambda       -0.3962604E-03
   maximum displ.:     0.2460252 α      in ANC's #4, #5, #3, ...

........................................................................
.............................. CYCLE   12 ..............................
........................................................................

 iter      E             dE          RMSdq      gap      omega  full diag
   1   -142.3185716 -0.142319E+03  0.851E-02    1.99       0.0  T
   2   -142.3185763 -0.466800E-05  0.456E-02    1.99       1.0  T
   3   -142.3185705  0.577971E-05  0.126E-02    1.99       1.0  T
   4   -142.3185756 -0.505268E-05  0.682E-03    1.99       1.6  T
   5   -142.3185778 -0.219755E-05  0.203E-03    1.99       5.4  T
   6   -142.3185782 -0.385969E-06  0.512E-04    1.99      21.3  T
   7   -142.3185782 -0.646693E-08  0.280E-04    1.99      39.0  T
     SCC iter.                  ...        0 min,  0.642 sec
     gradient                   ...        0 min,  0.114 sec
 * total energy  :  -140.1105184 Eh     change       -0.3218724E-03 Eh
   gradient norm :     0.0069075 Eh/α   predicted    -0.2412495E-03 ( -25.05%)
   displ. norm   :     0.4738548 α      lambda       -0.3638876E-03
   maximum displ.:     0.2537709 α      in ANC's #4, #5, #3, ...

........................................................................
.............................. CYCLE   13 ..............................
........................................................................

 iter      E             dE          RMSdq      gap      omega  full diag
   1   -142.3176889 -0.142318E+03  0.880E-02    1.99       0.0  T
   2   -142.3176939 -0.503260E-05  0.477E-02    1.99       1.0  T
   3   -142.3176861  0.783805E-05  0.135E-02    1.99       1.0  T
   4   -142.3176933 -0.726664E-05  0.700E-03    2.00       1.6  T
   5   -142.3176956 -0.227424E-05  0.229E-03    1.99       4.8  T
   6   -142.3176960 -0.435713E-06  0.732E-04    1.99      14.9  T
   7   -142.3176961 -0.186614E-07  0.434E-04    1.99      25.2  T
     SCC iter.                  ...        0 min,  0.966 sec
     gradient                   ...        0 min,  0.113 sec
 * total energy  :  -140.1108110 Eh     change       -0.2925691E-03 Eh
   gradient norm :     0.0054888 Eh/α   predicted    -0.2227999E-03 ( -23.85%)
   displ. norm   :     0.4594084 α      lambda       -0.3131701E-03
   maximum displ.:     0.2490782 α      in ANC's #4, #5, #3, ...

........................................................................
.............................. CYCLE   14 ..............................
........................................................................

 iter      E             dE          RMSdq      gap      omega  full diag
   1   -142.3178712 -0.142318E+03  0.900E-02    2.00       0.0  T
   2   -142.3178768 -0.559055E-05  0.478E-02    2.00       1.0  T
   3   -142.3178715  0.536797E-05  0.129E-02    2.00       1.0  T
   4   -142.3178755 -0.401233E-05  0.739E-03    2.00       1.5  T
   5   -142.3178784 -0.291911E-05  0.204E-03    2.00       5.3  T
   6   -142.3178787 -0.336759E-06  0.784E-04    2.00      13.9  T
   7   -142.3178788 -0.223869E-07  0.460E-04    2.00      23.7  T
     SCC iter.                  ...        0 min,  0.797 sec
     gradient                   ...        0 min,  0.169 sec
 * total energy  :  -140.1110565 Eh     change       -0.2455258E-03 Eh
   gradient norm :     0.0037328 Eh/α   predicted    -0.1896391E-03 ( -22.76%)
   displ. norm   :     0.4296375 α      lambda       -0.2431800E-03
   maximum displ.:     0.2348463 α      in ANC's #4, #5, #3, ...

........................................................................
.............................. CYCLE   15 ..............................
........................................................................

 iter      E             dE          RMSdq      gap      omega  full diag
   1   -142.3180291 -0.142318E+03  0.827E-02    2.01       0.0  T
   2   -142.3180332 -0.415480E-05  0.449E-02    2.01       1.0  T
   3   -142.3180273  0.587368E-05  0.120E-02    2.01       1.0  T
   4   -142.3180325 -0.514256E-05  0.639E-03    2.01       1.7  T
   5   -142.3180345 -0.206341E-05  0.195E-03    2.01       5.6  T
   6   -142.3180348 -0.297942E-06  0.738E-04    2.01      14.8  T
   7   -142.3180349 -0.177376E-07  0.437E-04    2.01      25.0  T
     SCC iter.                  ...        0 min,  1.033 sec
     gradient                   ...        0 min,  0.116 sec
 * total energy  :  -140.1112468 Eh     change       -0.1902568E-03 Eh
   gradient norm :     0.0040028 Eh/α   predicted    -0.1440351E-03 ( -24.29%)
   displ. norm   :     0.4092354 α      lambda       -0.2050049E-03
   maximum displ.:     0.2236080 α      in ANC's #4, #5, #3, ...

........................................................................
.............................. CYCLE   16 ..............................
........................................................................

 iter      E             dE          RMSdq      gap      omega  full diag
   1   -142.3188198 -0.142319E+03  0.784E-02    2.01       0.0  T
   2   -142.3188233 -0.349678E-05  0.425E-02    2.02       1.0  T
   3   -142.3188194  0.388123E-05  0.108E-02    2.01       1.0  T
   4   -142.3188226 -0.318913E-05  0.583E-03    2.02       1.9  T
   5   -142.3188243 -0.172718E-05  0.163E-03    2.01       6.7  T
   6   -142.3188245 -0.217049E-06  0.583E-04    2.01      18.7  T
   7   -142.3188245 -0.131664E-07  0.309E-04    2.01      35.4  T
     SCC iter.                  ...        0 min,  1.009 sec
     gradient                   ...        0 min,  0.118 sec
 * total energy  :  -140.1114113 Eh     change       -0.1644510E-03 Eh
   gradient norm :     0.0047389 Eh/α   predicted    -0.1196734E-03 ( -27.23%)
   displ. norm   :     0.4408922 α      lambda       -0.2061821E-03
   maximum displ.:     0.2383747 α      in ANC's #4, #5, #3, ...

........................................................................
.............................. CYCLE   17 ..............................
........................................................................

 iter      E             dE          RMSdq      gap      omega  full diag
   1   -142.3192067 -0.142319E+03  0.803E-02    2.02       0.0  T
   2   -142.3192098 -0.309189E-05  0.443E-02    2.02       1.0  T
   3   -142.3192053  0.451569E-05  0.108E-02    2.02       1.0  T
   4   -142.3192094 -0.409829E-05  0.552E-03    2.02       2.0  T
   5   -142.3192109 -0.147498E-05  0.160E-03    2.02       6.8  T
   6   -142.3192111 -0.214041E-06  0.526E-04    2.02      20.8  T
   7   -142.3192111 -0.917473E-08  0.269E-04    2.02      40.6  T
     SCC iter.                  ...        0 min,  0.563 sec
     gradient                   ...        0 min,  0.112 sec
 * total energy  :  -140.1115790 Eh     change       -0.1677881E-03 Eh
   gradient norm :     0.0046490 Eh/α   predicted    -0.1231322E-03 ( -26.61%)
   displ. norm   :     0.4707726 α      lambda       -0.2090185E-03
   maximum displ.:     0.2500913 α      in ANC's #4, #5, #3, ...

........................................................................
.............................. CYCLE   18 ..............................
........................................................................

 iter      E             dE          RMSdq      gap      omega  full diag
   1   -142.3198062 -0.142320E+03  0.822E-02    2.03       0.0  T
   2   -142.3198092 -0.294853E-05  0.457E-02    2.03       1.0  T
   3   -142.3198051  0.409950E-05  0.104E-02    2.03       1.0  T
   4   -142.3198088 -0.365631E-05  0.545E-03    2.03       2.0  T
   5   -142.3198103 -0.150309E-05  0.147E-03    2.03       7.4  T
   6   -142.3198104 -0.161312E-06  0.564E-04    2.03      19.4  T
   7   -142.3198104 -0.109366E-07  0.293E-04    2.03      37.2  T
     SCC iter.                  ...        0 min,  0.625 sec
     gradient                   ...        0 min,  0.145 sec
 * total energy  :  -140.1117477 Eh     change       -0.1686672E-03 Eh
   gradient norm :     0.0037664 Eh/α   predicted    -0.1276739E-03 ( -24.30%)
   displ. norm   :     0.4684175 α      lambda       -0.1874916E-03
   maximum displ.:     0.2430255 α      in ANC's #4, #5, #3, ...

........................................................................
.............................. CYCLE   19 ..............................
........................................................................

 iter      E             dE          RMSdq      gap      omega  full diag
   1   -142.3202867 -0.142320E+03  0.784E-02    2.03       0.0  T
   2   -142.3202891 -0.246483E-05  0.442E-02    2.03       1.0  T
   3   -142.3202847  0.447692E-05  0.991E-03    2.03       1.1  T
   4   -142.3202891 -0.446087E-05  0.472E-03    2.03       2.3  T
   5   -142.3202901 -0.101239E-05  0.144E-03    2.03       7.6  T
   6   -142.3202903 -0.147943E-06  0.571E-04    2.03      19.1  T
   7   -142.3202903 -0.920227E-08  0.322E-04    2.03      33.9  T
     SCC iter.                  ...        0 min,  1.053 sec
     gradient                   ...        0 min,  0.114 sec
 * total energy  :  -140.1118959 Eh     change       -0.1481507E-03 Eh
   gradient norm :     0.0033009 Eh/α   predicted    -0.1143177E-03 ( -22.84%)
   displ. norm   :     0.4267292 α      lambda       -0.1481738E-03
   maximum displ.:     0.2138444 α      in ANC's #4, #3, #5, ...

........................................................................
.............................. CYCLE   20 ..............................
........................................................................

 iter      E             dE          RMSdq      gap      omega  full diag
   1   -142.3209656 -0.142321E+03  0.701E-02    2.04       0.0  T
   2   -142.3209672 -0.162523E-05  0.400E-02    2.04       1.0  T
   3   -142.3209632  0.394682E-05  0.847E-03    2.04       1.3  T
   4   -142.3209673 -0.407806E-05  0.377E-03    2.04       2.9  T
   5   -142.3209679 -0.636787E-06  0.121E-03    2.04       9.0  T
   6   -142.3209680 -0.104664E-06  0.493E-04    2.04      22.1  T
   7   -142.3209681 -0.615790E-08  0.281E-04    2.04      38.8  T
     SCC iter.                  ...        0 min,  1.275 sec
     gradient                   ...        0 min,  0.118 sec
 * total energy  :  -140.1120096 Eh     change       -0.1137569E-03 Eh
   gradient norm :     0.0034854 Eh/α   predicted    -0.8757909E-04 ( -23.01%)
   displ. norm   :     0.3737658 α      lambda       -0.1063534E-03
   maximum displ.:     0.1812645 α      in ANC's #4, #3, #5, ...
 * RMSD in coord.:     0.7389720 α      energy gain  -0.4041720E-01 Eh

generating ANC from exact Hessian ...
Using Lindh-Hessian (1995)
 Shifting diagonal of input Hessian by    9.8875014128550036E-003
 Lowest  eigenvalues of input Hessian
    0.000000    0.000000    0.000000    0.000000    0.000000    0.000000
    0.010000    0.010083    0.010120    0.010266    0.010292    0.010525
    0.010595    0.010726    0.010986    0.011274    0.011491    0.011527
 Highest eigenvalues
    2.065169    2.074450    2.085319    2.111021    2.125191    2.127251


........................................................................
.............................. CYCLE   21 ..............................
........................................................................

 iter      E             dE          RMSdq      gap      omega  full diag
   1   -142.3211506 -0.142321E+03  0.616E-02    2.04       0.0  T
   2   -142.3211516 -0.106663E-05  0.355E-02    2.04       1.0  T
   3   -142.3211469  0.471746E-05  0.819E-03    2.04       1.3  T
   4   -142.3211521 -0.518103E-05  0.267E-03    2.04       4.1  T
   5   -142.3211523 -0.202977E-06  0.110E-03    2.04      10.0  T
   6   -142.3211524 -0.914992E-07  0.377E-04    2.04      28.9  T
   7   -142.3211524 -0.418814E-08  0.207E-04    2.04      52.7  T
     SCC iter.                  ...        0 min,  0.811 sec
     gradient                   ...        0 min,  0.114 sec
 * total energy  :  -140.1120890 Eh     change       -0.7934774E-04 Eh
   gradient norm :     0.0034882 Eh/α   predicted     0.0000000E+00 (-100.00%)
   displ. norm   :     0.0403916 α      lambda       -0.2167898E-04
   maximum displ.:     0.0161217 α      in ANC's #10, #3, #12, ...

........................................................................
.............................. CYCLE   22 ..............................
........................................................................

 iter      E             dE          RMSdq      gap      omega  full diag
   1   -142.3217361 -0.142322E+03  0.114E-02    2.04       0.0  T
   2   -142.3217362 -0.104883E-06  0.633E-03    2.04       1.7  T
   3   -142.3217362  0.842188E-07  0.160E-03    2.04       6.8  T
   4   -142.3217362 -0.818656E-07  0.806E-04    2.04      13.5  T
   5   -142.3217363 -0.254992E-07  0.332E-04    2.04      32.9  T
     SCC iter.                  ...        0 min,  0.703 sec
     gradient                   ...        0 min,  0.118 sec
 * total energy  :  -140.1121168 Eh     change       -0.2783771E-04 Eh
   gradient norm :     0.0019793 Eh/α   predicted    -0.1662981E-04 ( -40.26%)
   displ. norm   :     0.2099749 α      lambda       -0.7530452E-04
   maximum displ.:     0.0845319 α      in ANC's #3, #10, #12, ...

........................................................................
.............................. CYCLE   23 ..............................
........................................................................

 iter      E             dE          RMSdq      gap      omega  full diag
   1   -142.3227157 -0.142323E+03  0.522E-02    2.04       0.0  T
   2   -142.3227171 -0.139429E-05  0.293E-02    2.04       1.0  T
   3   -142.3227150  0.213526E-05  0.658E-03    2.04       1.7  T
   4   -142.3227168 -0.187970E-05  0.351E-03    2.04       3.1  T
   5   -142.3227175 -0.717402E-06  0.985E-04    2.04      11.1  T
   6   -142.3227176 -0.710861E-07  0.378E-04    2.04      28.9  T
     SCC iter.                  ...        0 min,  0.659 sec
     gradient                   ...        0 min,  0.118 sec
 * total energy  :  -140.1121686 Eh     change       -0.5183706E-04 Eh
   gradient norm :     0.0039819 Eh/α   predicted    -0.3839105E-04 ( -25.94%)
   displ. norm   :     0.0452172 α      lambda       -0.2249068E-04
   maximum displ.:     0.0225723 α      in ANC's #3, #10, #7, ...

........................................................................
.............................. CYCLE   24 ..............................
........................................................................

 iter      E             dE          RMSdq      gap      omega  full diag
   1   -142.3223474 -0.142322E+03  0.106E-02    2.04       0.0  T
   2   -142.3223476 -0.117752E-06  0.591E-03    2.04       1.8  T
   3   -142.3223475  0.337339E-07  0.145E-03    2.04       7.5  T
   4   -142.3223476 -0.330528E-07  0.659E-04    2.04      16.6  T
   5   -142.3223476 -0.223777E-07  0.262E-04    2.04      41.7  T
     SCC iter.                  ...        0 min,  0.621 sec
     gradient                   ...        0 min,  0.123 sec
 * total energy  :  -140.1121875 Eh     change       -0.1890403E-04 Eh
   gradient norm :     0.0030442 Eh/α   predicted    -0.1126929E-04 ( -40.39%)
   displ. norm   :     0.1611319 α      lambda       -0.6531969E-04
   maximum displ.:     0.0791421 α      in ANC's #3, #10, #7, ...

........................................................................
.............................. CYCLE   25 ..............................
........................................................................

 iter      E             dE          RMSdq      gap      omega  full diag
   1   -142.3210256 -0.142321E+03  0.328E-02    2.05       0.0  T
   2   -142.3210261 -0.470732E-06  0.192E-02    2.05       1.0  T
   3   -142.3210253  0.760557E-06  0.347E-03    2.05       3.1  T
   4   -142.3210262 -0.937058E-06  0.100E-03    2.05      10.9  T
   5   -142.3210263 -0.255838E-07  0.515E-04    2.05      21.2  T
   6   -142.3210263 -0.731725E-08  0.278E-04    2.05      39.3  T
     SCC iter.                  ...        0 min,  0.545 sec
     gradient                   ...        0 min,  0.113 sec
 * total energy  :  -140.1122272 Eh     change       -0.3967909E-04 Eh
   gradient norm :     0.0019798 Eh/α   predicted    -0.3350849E-04 ( -15.55%)
   displ. norm   :     0.1798019 α      lambda       -0.2380293E-04
   maximum displ.:     0.0918244 α      in ANC's #3, #10, #7, ...

........................................................................
.............................. CYCLE   26 ..............................
........................................................................

 iter      E             dE          RMSdq      gap      omega  full diag
   1   -142.3205942 -0.142321E+03  0.360E-02    2.05       0.0  T
   2   -142.3205947 -0.453244E-06  0.208E-02    2.05       1.0  T
   3   -142.3205939  0.800598E-06  0.372E-03    2.05       2.9  T
   4   -142.3205948 -0.918290E-06  0.132E-03    2.05       8.3  T
   5   -142.3205949 -0.777868E-07  0.623E-04    2.05      17.5  T
   6   -142.3205949 -0.246497E-07  0.240E-04    2.05      45.5  T
     SCC iter.                  ...        0 min,  0.821 sec
     gradient                   ...        0 min,  0.113 sec
 * total energy  :  -140.1122528 Eh     change       -0.2562473E-04 Eh
   gradient norm :     0.0025976 Eh/α   predicted    -0.1207332E-04 ( -52.88%)
   displ. norm   :     0.1302529 α      lambda       -0.2841884E-04
   maximum displ.:     0.0696186 α      in ANC's #3, #10, #7, ...

........................................................................
.............................. CYCLE   27 ..............................
........................................................................

 iter      E             dE          RMSdq      gap      omega  full diag
   1   -142.3209704 -0.142321E+03  0.254E-02    2.05       0.0  T
   2   -142.3209707 -0.221696E-06  0.146E-02    2.05       1.0  T
   3   -142.3209702  0.468699E-06  0.267E-03    2.05       4.1  T
   4   -142.3209707 -0.492433E-06  0.121E-03    2.05       9.0  T
   5   -142.3209708 -0.847485E-07  0.456E-04    2.05      23.9  T
   6   -142.3209708 -0.148967E-07  0.164E-04    2.05      66.5  T
     SCC iter.                  ...        0 min,  0.754 sec
     gradient                   ...        0 min,  0.152 sec
 * total energy  :  -140.1122771 Eh     change       -0.2428814E-04 Eh
   gradient norm :     0.0020570 Eh/α   predicted    -0.1445502E-04 ( -40.49%)
   displ. norm   :     0.2250000 α      lambda       -0.4481778E-04
   maximum displ.:     0.1245925 α      in ANC's #3, #7, #10, ...

........................................................................
.............................. CYCLE   28 ..............................
........................................................................

 iter      E             dE          RMSdq      gap      omega  full diag
   1   -142.3216663 -0.142322E+03  0.435E-02    2.05       0.0  T
   2   -142.3216670 -0.717530E-06  0.250E-02    2.05       1.0  T
   3   -142.3216653  0.172241E-05  0.520E-03    2.05       2.1  T
   4   -142.3216672 -0.184923E-05  0.218E-03    2.05       5.0  T
   5   -142.3216674 -0.233311E-06  0.935E-04    2.05      11.7  T
   6   -142.3216675 -0.651020E-07  0.285E-04    2.05      38.2  T
     SCC iter.                  ...        0 min,  0.930 sec
     gradient                   ...        0 min,  0.174 sec
 * total energy  :  -140.1123107 Eh     change       -0.3354527E-04 Eh
   gradient norm :     0.0017588 Eh/α   predicted    -0.2354546E-04 ( -29.81%)
   displ. norm   :     0.2976617 α      lambda       -0.2835173E-04
   maximum displ.:     0.1731187 α      in ANC's #3, #7, #4, ...

........................................................................
.............................. CYCLE   29 ..............................
........................................................................

 iter      E             dE          RMSdq      gap      omega  full diag
   1   -142.3220551 -0.142322E+03  0.546E-02    2.05       0.0  T
   2   -142.3220561 -0.993350E-06  0.319E-02    2.05       1.0  T
   3   -142.3220524  0.371991E-05  0.654E-03    2.05       1.7  T
   4   -142.3220566 -0.423623E-05  0.198E-03    2.05       5.5  T
   5   -142.3220568 -0.164299E-06  0.103E-03    2.05      10.6  T
   6   -142.3220568 -0.615530E-07  0.383E-04    2.05      28.5  T
   7   -142.3220568 -0.163752E-08  0.225E-04    2.05      48.4  T
     SCC iter.                  ...        0 min,  0.796 sec
     gradient                   ...        0 min,  0.172 sec
 * total energy  :  -140.1123404 Eh     change       -0.2969477E-04 Eh
   gradient norm :     0.0024325 Eh/α   predicted    -0.1473642E-04 ( -50.37%)
   displ. norm   :     0.0979420 α      lambda       -0.1897405E-04
   maximum displ.:     0.0622331 α      in ANC's #3, #2, #4, ...

........................................................................
.............................. CYCLE   30 ..............................
........................................................................

 iter      E             dE          RMSdq      gap      omega  full diag
   1   -142.3224144 -0.142322E+03  0.178E-02    2.05       0.0  T
   2   -142.3224146 -0.136548E-06  0.103E-02    2.05       1.1  T
   3   -142.3224140  0.526090E-06  0.252E-03    2.05       4.3  T
   4   -142.3224146 -0.586083E-06  0.792E-04    2.05      13.8  T
   5   -142.3224146 -0.273017E-07  0.381E-04    2.05      28.6  T
     SCC iter.                  ...        0 min,  0.447 sec
     gradient                   ...        0 min,  0.115 sec
 * total energy  :  -140.1123573 Eh     change       -0.1697633E-04 Eh
   gradient norm :     0.0019570 Eh/α   predicted    -0.9578859E-05 ( -43.58%)
   displ. norm   :     0.2323652 α      lambda       -0.3521571E-04
   maximum displ.:     0.1499780 α      in ANC's #3, #2, #4, ...

........................................................................
.............................. CYCLE   31 ..............................
........................................................................

 iter      E             dE          RMSdq      gap      omega  full diag
   1   -142.3226973 -0.142323E+03  0.414E-02    2.05       0.0  T
   2   -142.3226982 -0.902975E-06  0.239E-02    2.06       1.0  T
   3   -142.3226948  0.333232E-05  0.638E-03    2.05       1.7  T
   4   -142.3226985 -0.364398E-05  0.226E-03    2.06       4.8  T
   5   -142.3226987 -0.245083E-06  0.955E-04    2.06      11.4  T
   6   -142.3226988 -0.583424E-07  0.321E-04    2.06      34.0  T
     SCC iter.                  ...        0 min,  0.711 sec
     gradient                   ...        0 min,  0.113 sec
 * total energy  :  -140.1123960 Eh     change       -0.3863508E-04 Eh
   gradient norm :     0.0014306 Eh/α   predicted    -0.1803221E-04 ( -53.33%)
   displ. norm   :     0.2106784 α      lambda       -0.2205686E-04
   maximum displ.:     0.1388936 α      in ANC's #3, #2, #4, ...

........................................................................
.............................. CYCLE   32 ..............................
........................................................................

 iter      E             dE          RMSdq      gap      omega  full diag
   1   -142.3219598 -0.142322E+03  0.356E-02    2.06       0.0  T
   2   -142.3219605 -0.678339E-06  0.208E-02    2.06       1.0  T
   3   -142.3219571  0.336995E-05  0.630E-03    2.06       1.7  T
   4   -142.3219609 -0.375971E-05  0.178E-03    2.06       6.1  T
   5   -142.3219610 -0.134054E-06  0.833E-04    2.06      13.1  T
   6   -142.3219610 -0.364303E-07  0.303E-04    2.06      36.0  T
     SCC iter.                  ...        0 min,  0.802 sec
     gradient                   ...        0 min,  0.116 sec
 * total energy  :  -140.1124230 Eh     change       -0.2699767E-04 Eh
   gradient norm :     0.0018785 Eh/α   predicted    -0.1124834E-04 ( -58.34%)
   displ. norm   :     0.2092768 α      lambda       -0.2488031E-04
   maximum displ.:     0.1401076 α      in ANC's #3, #2, #4, ...

........................................................................
.............................. CYCLE   33 ..............................
........................................................................

 iter      E             dE          RMSdq      gap      omega  full diag
   1   -142.3217586 -0.142322E+03  0.357E-02    2.06       0.0  T
   2   -142.3217593 -0.681214E-06  0.208E-02    2.06       1.0  T
   3   -142.3217558  0.351895E-05  0.658E-03    2.06       1.7  T
   4   -142.3217597 -0.390399E-05  0.189E-03    2.06       5.8  T
   5   -142.3217598 -0.157097E-06  0.903E-04    2.06      12.1  T
   6   -142.3217599 -0.455591E-07  0.310E-04    2.06      35.2  T
     SCC iter.                  ...        0 min,  0.650 sec
     gradient                   ...        0 min,  0.169 sec
 * total energy  :  -140.1124547 Eh     change       -0.3173332E-04 Eh
   gradient norm :     0.0018623 Eh/α   predicted    -0.1268328E-04 ( -60.03%)
   displ. norm   :     0.3259651 α      lambda       -0.3809200E-04
   maximum displ.:     0.2189156 α      in ANC's #3, #2, #4, ...

........................................................................
.............................. CYCLE   34 ..............................
........................................................................

 iter      E             dE          RMSdq      gap      omega  full diag
   1   -142.3209224 -0.142321E+03  0.545E-02    2.06       0.0  T
   2   -142.3209239 -0.154902E-05  0.323E-02    2.06       1.0  T
   3   -142.3209127  0.112684E-04  0.114E-02    2.06       1.0  T
   4   -142.3209253 -0.126187E-04  0.232E-03    2.06       4.7  T
   5   -142.3209255 -0.217711E-06  0.124E-03    2.06       8.8  T
   6   -142.3209256 -0.701465E-07  0.465E-04    2.06      23.5  T
   7   -142.3209256 -0.587954E-08  0.243E-04    2.06      44.9  T
     SCC iter.                  ...        0 min,  0.849 sec
     gradient                   ...        0 min,  0.118 sec
 * total energy  :  -140.1125007 Eh     change       -0.4594577E-04 Eh
   gradient norm :     0.0020284 Eh/α   predicted    -0.1995033E-04 ( -56.58%)
   displ. norm   :     0.2867329 α      lambda       -0.4752392E-04
   maximum displ.:     0.1935773 α      in ANC's #3, #2, #4, ...

........................................................................
.............................. CYCLE   35 ..............................
........................................................................

 iter      E             dE          RMSdq      gap      omega  full diag
   1   -142.3205384 -0.142321E+03  0.484E-02    2.06       0.0  T
   2   -142.3205394 -0.103557E-05  0.286E-02    2.06       1.0  T
   3   -142.3205309  0.849872E-05  0.977E-03    2.06       1.1  T
   4   -142.3205404 -0.951168E-05  0.177E-03    2.06       6.2  T
   5   -142.3205405 -0.124713E-06  0.991E-04    2.06      11.0  T
   6   -142.3205406 -0.469577E-07  0.354E-04    2.06      30.8  T
     SCC iter.                  ...        0 min,  0.604 sec
     gradient                   ...        0 min,  0.113 sec
 * total energy  :  -140.1125400 Eh     change       -0.3931122E-04 Eh
   gradient norm :     0.0022530 Eh/α   predicted    -0.2571968E-04 ( -34.57%)
   displ. norm   :     0.4212279 α      lambda       -0.6638226E-04
   maximum displ.:     0.2846698 α      in ANC's #3, #2, #4, ...

........................................................................
.............................. CYCLE   36 ..............................
........................................................................

 iter      E             dE          RMSdq      gap      omega  full diag
   1   -142.3200389 -0.142320E+03  0.700E-02    2.06       0.0  T
   2   -142.3200410 -0.215502E-05  0.413E-02    2.06       1.0  T
   3   -142.3200219  0.191300E-04  0.145E-02    2.06       1.0  T
   4   -142.3200433 -0.213995E-04  0.241E-03    2.06       4.5  T
   5   -142.3200436 -0.251075E-06  0.132E-03    2.06       8.3  T
   6   -142.3200436 -0.679092E-07  0.488E-04    2.06      22.4  T
   7   -142.3200436 -0.475021E-08  0.259E-04    2.06      42.1  T
     SCC iter.                  ...        0 min,  0.709 sec
     gradient                   ...        0 min,  0.150 sec
 * total energy  :  -140.1125895 Eh     change       -0.4950053E-04 Eh
   gradient norm :     0.0030727 Eh/α   predicted    -0.3908105E-04 ( -21.05%)
   displ. norm   :     0.3237189 α      lambda       -0.6369085E-04
   maximum displ.:     0.2146474 α      in ANC's #3, #2, #8, ...

........................................................................
.............................. CYCLE   37 ..............................
........................................................................

 iter      E             dE          RMSdq      gap      omega  full diag
   1   -142.3209203 -0.142321E+03  0.532E-02    2.06       0.0  T
   2   -142.3209217 -0.137400E-05  0.314E-02    2.07       1.0  T
   3   -142.3209109  0.108215E-04  0.110E-02    2.06       1.0  T
   4   -142.3209230 -0.120845E-04  0.179E-03    2.07       6.1  T
   5   -142.3209231 -0.155033E-06  0.951E-04    2.07      11.5  T
   6   -142.3209232 -0.323304E-07  0.405E-04    2.07      27.0  T
     SCC iter.                  ...        0 min,  0.734 sec
     gradient                   ...        0 min,  0.117 sec
 * total energy  :  -140.1126371 Eh     change       -0.4761776E-04 Eh
   gradient norm :     0.0027882 Eh/α   predicted    -0.3518365E-04 ( -26.11%)
   displ. norm   :     0.4222404 α      lambda       -0.7016367E-04
   maximum displ.:     0.2851808 α      in ANC's #3, #2, #8, ...

........................................................................
.............................. CYCLE   38 ..............................
........................................................................

 iter      E             dE          RMSdq      gap      omega  full diag
   1   -142.3209471 -0.142321E+03  0.676E-02    2.07       0.0  T
   2   -142.3209496 -0.249602E-05  0.398E-02    2.07       1.0  T
   3   -142.3209337  0.158804E-04  0.133E-02    2.07       1.0  T
   4   -142.3209516 -0.178644E-04  0.243E-03    2.07       4.5  T
   5   -142.3209518 -0.238035E-06  0.137E-03    2.07       7.9  T
   6   -142.3209519 -0.795177E-07  0.562E-04    2.07      19.4  T
   7   -142.3209519 -0.684022E-08  0.312E-04    2.07      35.0  T
     SCC iter.                  ...        0 min,  0.624 sec
     gradient                   ...        0 min,  0.114 sec
 * total energy  :  -140.1126859 Eh     change       -0.4879825E-04 Eh
   gradient norm :     0.0037771 Eh/α   predicted    -0.4134143E-04 ( -15.28%)
   displ. norm   :     0.2905806 α      lambda       -0.1014531E-03
   maximum displ.:     0.1694089 α      in ANC's #3, #8, #2, ...

........................................................................
.............................. CYCLE   39 ..............................
........................................................................

 iter      E             dE          RMSdq      gap      omega  full diag
   1   -142.3247692 -0.142325E+03  0.502E-02    2.08       0.0  T
   2   -142.3247720 -0.276136E-05  0.290E-02    2.08       1.0  T
   3   -142.3247658  0.610708E-05  0.969E-03    2.08       1.1  T
   4   -142.3247727 -0.684602E-05  0.300E-03    2.08       3.6  T
   5   -142.3247731 -0.439897E-06  0.127E-03    2.08       8.6  T
   6   -142.3247732 -0.660349E-07  0.608E-04    2.08      18.0  T
   7   -142.3247732 -0.165219E-07  0.328E-04    2.08      33.2  T
     SCC iter.                  ...        0 min,  0.596 sec
     gradient                   ...        0 min,  0.115 sec
 * total energy  :  -140.1127269 Eh     change       -0.4103539E-04 Eh
   gradient norm :     0.0027409 Eh/α   predicted    -0.5501198E-04 (  34.06%)
   displ. norm   :     0.3548462 α      lambda       -0.5818460E-04
   maximum displ.:     0.2492328 α      in ANC's #3, #2, #7, ...

........................................................................
.............................. CYCLE   40 ..............................
........................................................................

 iter      E             dE          RMSdq      gap      omega  full diag
   1   -142.3217773 -0.142322E+03  0.597E-02    2.07       0.0  T
   2   -142.3217791 -0.188099E-05  0.352E-02    2.08       1.0  T
   3   -142.3217672  0.119515E-04  0.113E-02    2.07       1.0  T
   4   -142.3217805 -0.133395E-04  0.214E-03    2.08       5.1  T
   5   -142.3217807 -0.212659E-06  0.114E-03    2.08       9.6  T
   6   -142.3217808 -0.614931E-07  0.439E-04    2.08      24.8  T
   7   -142.3217808 -0.497786E-08  0.226E-04    2.08      48.3  T
     SCC iter.                  ...        0 min,  0.867 sec
     gradient                   ...        0 min,  0.115 sec
 * total energy  :  -140.1127521 Eh     change       -0.2512558E-04 Eh
   gradient norm :     0.0027329 Eh/α   predicted    -0.3276005E-04 (  30.39%)
   displ. norm   :     0.0901521 α      lambda       -0.3208471E-04
   maximum displ.:     0.0400446 α      in ANC's #3, #2, #8, ...

........................................................................
.............................. CYCLE   41 ..............................
........................................................................

 iter      E             dE          RMSdq      gap      omega  full diag
   1   -142.3225908 -0.142323E+03  0.182E-02    2.08       0.0  T
   2   -142.3225910 -0.174010E-06  0.106E-02    2.08       1.0  T
   3   -142.3225900  0.994441E-06  0.350E-03    2.08       3.1  T
   4   -142.3225911 -0.111443E-05  0.743E-04    2.08      14.7  T
   5   -142.3225911 -0.148572E-07  0.428E-04    2.08      25.5  T
   6   -142.3225912 -0.117458E-07  0.123E-04    2.08      88.8  T
     SCC iter.                  ...        0 min,  0.723 sec
     gradient                   ...        0 min,  0.116 sec
 * total energy  :  -140.1127755 Eh     change       -0.2348493E-04 Eh
   gradient norm :     0.0017111 Eh/α   predicted    -0.1617306E-04 ( -31.13%)
   displ. norm   :     0.1877500 α      lambda       -0.4244539E-04
   maximum displ.:     0.0894993 α      in ANC's #3, #13, #22, ...

........................................................................
.............................. CYCLE   42 ..............................
........................................................................

 iter      E             dE          RMSdq      gap      omega  full diag
   1   -142.3228775 -0.142323E+03  0.385E-02    2.08       0.0  T
   2   -142.3228784 -0.810290E-06  0.221E-02    2.08       1.0  T
   3   -142.3228773  0.104680E-05  0.473E-03    2.08       2.3  T
   4   -142.3228786 -0.124617E-05  0.186E-03    2.08       5.9  T
   5   -142.3228787 -0.114441E-06  0.552E-04    2.08      19.8  T
   6   -142.3228787 -0.128536E-07  0.270E-04    2.08      40.5  T
     SCC iter.                  ...        0 min,  0.808 sec
     gradient                   ...        0 min,  0.121 sec
 * total energy  :  -140.1128061 Eh     change       -0.3055522E-04 Eh
   gradient norm :     0.0020431 Eh/α   predicted    -0.2156002E-04 ( -29.44%)
   displ. norm   :     0.1529816 α      lambda       -0.1488063E-04
   maximum displ.:     0.1112568 α      in ANC's #3, #2, #7, ...
 * RMSD in coord.:     0.4409168 α      energy gain  -0.7964756E-03 Eh

generating ANC from exact Hessian ...
Using Lindh-Hessian (1995)
 Shifting diagonal of input Hessian by    9.8572103245738295E-003
 Lowest  eigenvalues of input Hessian
    0.000000    0.000000    0.000000    0.000000    0.000000    0.000000
    0.010000    0.010072    0.010129    0.010234    0.010267    0.010492
    0.010589    0.010933    0.010981    0.011210    0.011445    0.011509
 Highest eigenvalues
    2.066131    2.073101    2.084851    2.109884    2.125079    2.131051


........................................................................
.............................. CYCLE   43 ..............................
........................................................................

 iter      E             dE          RMSdq      gap      omega  full diag
   1   -142.3225748 -0.142323E+03  0.233E-02    2.08       0.0  T
   2   -142.3225751 -0.282046E-06  0.137E-02    2.08       1.0  T
   3   -142.3225734  0.173593E-05  0.432E-03    2.08       2.5  T
   4   -142.3225754 -0.195780E-05  0.813E-04    2.08      13.4  T
   5   -142.3225754 -0.193642E-07  0.502E-04    2.08      21.7  T
   6   -142.3225754 -0.121010E-07  0.189E-04    2.08      57.6  T
     SCC iter.                  ...        0 min,  0.581 sec
     gradient                   ...        0 min,  0.113 sec
 * total energy  :  -140.1128167 Eh     change       -0.1060489E-04 Eh
   gradient norm :     0.0018313 Eh/α   predicted     0.0000000E+00 (-100.00%)
   displ. norm   :     0.0250680 α      lambda       -0.7465241E-05
   maximum displ.:     0.0090541 α      in ANC's #4, #3, #9, ...

........................................................................
.............................. CYCLE   44 ..............................
........................................................................

 iter      E             dE          RMSdq      gap      omega  full diag
   1   -142.3229998 -0.142323E+03  0.760E-03    2.08       0.0  T
   2   -142.3229999 -0.100123E-06  0.428E-03    2.08       2.6  T
   3   -142.3229999  0.644650E-07  0.123E-03    2.08       8.9  T
   4   -142.3229999 -0.780710E-07  0.449E-04    2.08      24.3  T
   5   -142.3230000 -0.872117E-08  0.203E-04    2.08      53.7  T
     SCC iter.                  ...        0 min,  0.440 sec
     gradient                   ...        0 min,  0.117 sec
 * total energy  :  -140.1128252 Eh     change       -0.8474147E-05 Eh
   gradient norm :     0.0007387 Eh/α   predicted    -0.4029458E-05 ( -52.45%)
   displ. norm   :     0.0474247 α      lambda       -0.6665262E-05
   maximum displ.:     0.0194242 α      in ANC's #4, #3, #9, ...

........................................................................
.............................. CYCLE   45 ..............................
........................................................................

 iter      E             dE          RMSdq      gap      omega  full diag
   1   -142.3229899 -0.142323E+03  0.122E-02    2.08       0.0  T
   2   -142.3229900 -0.103752E-06  0.705E-03    2.08       1.5  T
   3   -142.3229899  0.862724E-07  0.128E-03    2.08       8.6  T
   4   -142.3229900 -0.936605E-07  0.601E-04    2.08      18.2  T
   5   -142.3229900 -0.200066E-07  0.176E-04    2.08      61.9  T
     SCC iter.                  ...        0 min,  0.667 sec
     gradient                   ...        0 min,  0.145 sec
 * total energy  :  -140.1128318 Eh     change       -0.6602491E-05 Eh
   gradient norm :     0.0007740 Eh/α   predicted    -0.3336316E-05 ( -49.47%)
   displ. norm   :     0.0648099 α      lambda       -0.5815692E-05
   maximum displ.:     0.0275234 α      in ANC's #4, #1, #3, ...

........................................................................
.............................. CYCLE   46 ..............................
........................................................................

 iter      E             dE          RMSdq      gap      omega  full diag
   1   -142.3228225 -0.142323E+03  0.153E-02    2.08       0.0  T
   2   -142.3228227 -0.177327E-06  0.855E-03    2.08       1.3  T
   3   -142.3228226  0.162237E-06  0.208E-03    2.08       5.3  T
   4   -142.3228227 -0.184138E-06  0.861E-04    2.08      12.7  T
   5   -142.3228228 -0.305373E-07  0.322E-04    2.08      33.9  T
     SCC iter.                  ...        0 min,  0.462 sec
     gradient                   ...        0 min,  0.146 sec
 * total energy  :  -140.1128365 Eh     change       -0.4684482E-05 Eh
   gradient norm :     0.0012004 Eh/α   predicted    -0.2941771E-05 ( -37.20%)
   displ. norm   :     0.0631916 α      lambda       -0.5234629E-05
   maximum displ.:     0.0281670 α      in ANC's #4, #1, #3, ...

........................................................................
.............................. CYCLE   47 ..............................
........................................................................

 iter      E             dE          RMSdq      gap      omega  full diag
   1   -142.3227298 -0.142323E+03  0.137E-02    2.08       0.0  T
   2   -142.3227299 -0.129287E-06  0.770E-03    2.08       1.4  T
   3   -142.3227299  0.771636E-07  0.144E-03    2.08       7.6  T
   4   -142.3227299 -0.723415E-07  0.718E-04    2.08      15.2  T
   5   -142.3227300 -0.327049E-07  0.243E-04    2.08      44.9  T
     SCC iter.                  ...        0 min,  0.570 sec
     gradient                   ...        0 min,  0.114 sec
 * total energy  :  -140.1128420 Eh     change       -0.5568404E-05 Eh
   gradient norm :     0.0010939 Eh/α   predicted    -0.2627604E-05 ( -52.81%)
   displ. norm   :     0.0916813 α      lambda       -0.6754950E-05
   maximum displ.:     0.0412033 α      in ANC's #4, #1, #3, ...

........................................................................
.............................. CYCLE   48 ..............................
........................................................................

 iter      E             dE          RMSdq      gap      omega  full diag
   1   -142.3226058 -0.142323E+03  0.172E-02    2.08       0.0  T
   2   -142.3226059 -0.172015E-06  0.976E-03    2.08       1.1  T
   3   -142.3226056  0.319131E-06  0.252E-03    2.08       4.3  T
   4   -142.3226060 -0.348804E-06  0.925E-04    2.08      11.8  T
   5   -142.3226060 -0.286044E-07  0.421E-04    2.08      25.9  T
     SCC iter.                  ...        0 min,  0.573 sec
     gradient                   ...        0 min,  0.115 sec
 * total energy  :  -140.1128490 Eh     change       -0.6975638E-05 Eh
   gradient norm :     0.0008454 Eh/α   predicted    -0.3391261E-05 ( -51.38%)
   displ. norm   :     0.1176662 α      lambda       -0.7095647E-05
   maximum displ.:     0.0534637 α      in ANC's #4, #1, #3, ...

........................................................................
.............................. CYCLE   49 ..............................
........................................................................

 iter      E             dE          RMSdq      gap      omega  full diag
   1   -142.3226060 -0.142323E+03  0.204E-02    2.08       0.0  T
   2   -142.3226062 -0.234876E-06  0.117E-02    2.08       1.0  T
   3   -142.3226058  0.455495E-06  0.283E-03    2.08       3.8  T
   4   -142.3226063 -0.540217E-06  0.820E-04    2.08      13.3  T
   5   -142.3226063 -0.168762E-07  0.298E-04    2.08      36.7  T
     SCC iter.                  ...        0 min,  0.782 sec
     gradient                   ...        0 min,  0.116 sec
 * total energy  :  -140.1128562 Eh     change       -0.7153891E-05 Eh
   gradient norm :     0.0009677 Eh/α   predicted    -0.3570829E-05 ( -50.09%)
   displ. norm   :     0.1003329 α      lambda       -0.4875942E-05
   maximum displ.:     0.0453546 α      in ANC's #4, #1, #3, ...

........................................................................
.............................. CYCLE   50 ..............................
........................................................................

 iter      E             dE          RMSdq      gap      omega  full diag
   1   -142.3227769 -0.142323E+03  0.161E-02    2.08       0.0  T
   2   -142.3227771 -0.143215E-06  0.919E-03    2.08       1.2  T
   3   -142.3227768  0.299648E-06  0.228E-03    2.08       4.8  T
   4   -142.3227771 -0.339934E-06  0.795E-04    2.08      13.7  T
   5   -142.3227772 -0.212927E-07  0.321E-04    2.08      33.9  T
     SCC iter.                  ...        0 min,  0.709 sec
     gradient                   ...        0 min,  0.116 sec
 * total energy  :  -140.1128616 Eh     change       -0.5467849E-05 Eh
   gradient norm :     0.0009358 Eh/α   predicted    -0.2450352E-05 ( -55.19%)
   displ. norm   :     0.1113752 α      lambda       -0.4892061E-05
   maximum displ.:     0.0494733 α      in ANC's #4, #1, #3, ...

........................................................................
.............................. CYCLE   51 ..............................
........................................................................

 iter      E             dE          RMSdq      gap      omega  full diag
   1   -142.3230133 -0.142323E+03  0.169E-02    2.09       0.0  T
   2   -142.3230135 -0.174733E-06  0.971E-03    2.08       1.1  T
   3   -142.3230131  0.367967E-06  0.251E-03    2.08       4.4  T
   4   -142.3230136 -0.423734E-06  0.854E-04    2.08      12.8  T
   5   -142.3230136 -0.241172E-07  0.298E-04    2.08      36.7  T
     SCC iter.                  ...        0 min,  0.664 sec
     gradient                   ...        0 min,  0.117 sec
 * total energy  :  -140.1128667 Eh     change       -0.5035860E-05 Eh
   gradient norm :     0.0006488 Eh/α   predicted    -0.2460129E-05 ( -51.15%)
   displ. norm   :     0.0734784 α      lambda       -0.2815470E-05
   maximum displ.:     0.0334519 α      in ANC's #1, #4, #3, ...

........................................................................
.............................. CYCLE   52 ..............................
........................................................................

 iter      E             dE          RMSdq      gap      omega  full diag
   1   -142.3230565 -0.142323E+03  0.107E-02    2.08       0.0  T
   2   -142.3230565 -0.717611E-07  0.618E-03    2.08       1.8  T
   3   -142.3230564  0.167844E-06  0.159E-03    2.08       6.8  T
   4   -142.3230566 -0.197186E-06  0.460E-04    2.08      23.7  T
   5   -142.3230566 -0.474756E-08  0.191E-04    2.08      57.2  T
     SCC iter.                  ...        0 min,  0.515 sec
     gradient                   ...        0 min,  0.146 sec
 * total energy  :  -140.1128696 Eh     change       -0.2910616E-05 Eh
   gradient norm :     0.0004221 Eh/α   predicted    -0.1413660E-05 ( -51.43%)
   displ. norm   :     0.0523260 α      lambda       -0.1950619E-05
   maximum displ.:     0.0241365 α      in ANC's #1, #3, #4, ...

........................................................................
.............................. CYCLE   53 ..............................
........................................................................

 iter      E             dE          RMSdq      gap      omega  full diag
   1   -142.3230285 -0.142323E+03  0.805E-03    2.08       0.0  T
   2   -142.3230285 -0.374005E-07  0.460E-03    2.08       2.4  T
   3   -142.3230285  0.432651E-07  0.956E-04    2.08      11.4  T
   4   -142.3230285 -0.532515E-07  0.371E-04    2.08      29.4  T
     SCC iter.                  ...        0 min,  0.405 sec
     gradient                   ...        0 min,  0.164 sec
 * total energy  :  -140.1128716 Eh     change       -0.2068704E-05 Eh
   gradient norm :     0.0004148 Eh/α   predicted    -0.9793863E-06 ( -52.66%)
   displ. norm   :     0.0415679 α      lambda       -0.1507890E-05
   maximum displ.:     0.0180705 α      in ANC's #1, #3, #5, ...

........................................................................
.............................. CYCLE   54 ..............................
........................................................................

 iter      E             dE          RMSdq      gap      omega  full diag
   1   -142.3229214 -0.142323E+03  0.708E-03    2.08       0.0  T
   2   -142.3229214 -0.222097E-07  0.406E-03    2.08       2.7  T
   3   -142.3229214  0.411774E-07  0.886E-04    2.08      12.3  T
   4   -142.3229214 -0.481622E-07  0.298E-04    2.08      36.7  T
     SCC iter.                  ...        0 min,  0.504 sec
     gradient                   ...        0 min,  0.117 sec
 * total energy  :  -140.1128733 Eh     change       -0.1641372E-05 Eh
   gradient norm :     0.0004535 Eh/α   predicted    -0.7569769E-06 ( -53.88%)
   displ. norm   :     0.0430923 α      lambda       -0.1254042E-05
   maximum displ.:     0.0186825 α      in ANC's #1, #5, #10, ...

........................................................................
.............................. CYCLE   55 ..............................
........................................................................

 iter      E             dE          RMSdq      gap      omega  full diag
   1   -142.3228151 -0.142323E+03  0.715E-03    2.08       0.0  T
   2   -142.3228151 -0.179634E-07  0.411E-03    2.08       2.7  T
   3   -142.3228151  0.392423E-07  0.842E-04    2.08      13.0  T
   4   -142.3228151 -0.458126E-07  0.285E-04    2.08      38.2  T
     SCC iter.                  ...        0 min,  0.362 sec
     gradient                   ...        0 min,  0.114 sec
 * total energy  :  -140.1128746 Eh     change       -0.1340886E-05 Eh
   gradient norm :     0.0003419 Eh/α   predicted    -0.6297485E-06 ( -53.03%)
   displ. norm   :     0.0357870 α      lambda       -0.9077774E-06
   maximum displ.:     0.0157156 α      in ANC's #1, #7, #10, ...

........................................................................
.............................. CYCLE   56 ..............................
........................................................................

 iter      E             dE          RMSdq      gap      omega  full diag
   1   -142.3228160 -0.142323E+03  0.589E-03    2.08       0.0  T
   2   -142.3228161 -0.122631E-07  0.342E-03    2.08       3.2  T
   3   -142.3228160  0.405661E-07  0.766E-04    2.08      14.2  T
   4   -142.3228161 -0.456504E-07  0.210E-04    2.08      52.0  T
     SCC iter.                  ...        0 min,  0.379 sec
     gradient                   ...        0 min,  0.116 sec
 * total energy  :  -140.1128756 Eh     change       -0.9748936E-06 Eh
   gradient norm :     0.0002439 Eh/α   predicted    -0.4568879E-06 ( -53.13%)
   displ. norm   :     0.0321944 α      lambda       -0.7175638E-06
   maximum displ.:     0.0146234 α      in ANC's #1, #7, #12, ...

........................................................................
.............................. CYCLE   57 ..............................
........................................................................

 iter      E             dE          RMSdq      gap      omega  full diag
   1   -142.3228256 -0.142323E+03  0.543E-03    2.08       0.0  T
   2   -142.3228256 -0.128090E-07  0.315E-03    2.08       3.5  T
   3   -142.3228256  0.208930E-07  0.613E-04    2.08      17.8  T
   4   -142.3228256 -0.243734E-07  0.221E-04    2.08      49.4  T
     SCC iter.                  ...        0 min,  0.450 sec
     gradient                   ...        0 min,  0.143 sec
 * total energy  :  -140.1128763 Eh     change       -0.7398607E-06 Eh
   gradient norm :     0.0002686 Eh/α   predicted    -0.3614297E-06 ( -51.15%)
   displ. norm   :     0.0234146 α      lambda       -0.4551827E-06
   maximum displ.:     0.0112892 α      in ANC's #1, #7, #12, ...

........................................................................
.............................. CYCLE   58 ..............................
........................................................................

 iter      E             dE          RMSdq      gap      omega  full diag
   1   -142.3228850 -0.142323E+03  0.403E-03    2.08       0.0  T
   2   -142.3228850 -0.589773E-08  0.234E-03    2.08       4.7  T
   3   -142.3228850  0.206479E-07  0.515E-04    2.08      21.2  T
   4   -142.3228850 -0.229494E-07  0.159E-04    2.08      68.5  T
     SCC iter.                  ...        0 min,  0.367 sec
     gradient                   ...        0 min,  0.114 sec
 * total energy  :  -140.1128768 Eh     change       -0.4981486E-06 Eh
   gradient norm :     0.0002320 Eh/α   predicted    -0.2319779E-06 ( -53.43%)
   displ. norm   :     0.0200434 α      lambda       -0.3303325E-06
   maximum displ.:     0.0106763 α      in ANC's #1, #7, #12, ...

........................................................................
.............................. CYCLE   59 ..............................
........................................................................

 iter      E             dE          RMSdq      gap      omega  full diag
   1   -142.3229213 -0.142323E+03  0.338E-03    2.08       0.0  T
   2   -142.3229213 -0.416392E-08  0.196E-03    2.08       5.6  T
   3   -142.3229213  0.990940E-08  0.400E-04    2.08      27.3  T
   4   -142.3229213 -0.111619E-07  0.142E-04    2.08      77.0  T
     SCC iter.                  ...        0 min,  0.523 sec
     gradient                   ...        0 min,  0.114 sec
 * total energy  :  -140.1128772 Eh     change       -0.3580934E-06 Eh
[...]
    14   6 C        3.172     0.052    26.463     8.403
    15   6 C        2.915    -0.052    29.280     8.873
    16   6 C        2.920    -0.034    28.850     8.808
    17   6 C        2.987     0.012    27.744     8.640
    18   6 C        2.919    -0.031    28.767     8.795
    19   6 C        2.915    -0.022    28.563     8.764
    20   6 C        2.917    -0.023    28.569     8.765
    21   6 C        2.917    -0.032    28.793     8.799
    22   6 C        2.989     0.012    27.735     8.639
    23   7 N        2.682    -0.134    23.906     7.262
    24   6 C        3.857    -0.033    21.132     6.538
    25  15 P        4.748     0.305   147.392    21.809
    26  16 S        1.903    -0.030   142.280    20.076
    27  16 S        2.113    -0.028   142.219    20.072
    28   6 C        2.966     0.037    27.160     8.548
    29   6 C        2.983    -0.028    28.684     8.785
    30   6 C        2.919    -0.015    28.389     8.737
    31   6 C        2.919    -0.017    28.428     8.743
    32   6 C        2.925    -0.020    28.505     8.755
    33   6 C        2.988    -0.027    28.671     8.783
    34   6 C        3.335     0.491    17.235     6.577
    35   9 F        0.792    -0.192    11.152     3.945
    36   9 F        0.791    -0.217    11.413     3.991
    37   9 F        0.791    -0.192    11.156     3.946
    38   7 N        2.691    -0.126    23.749     7.238
    39   6 C        3.074     0.057    26.653     8.465
    40   6 C        2.921    -0.041    29.031     8.836
    41   6 C        2.920    -0.022    28.557     8.763
    42   6 C        2.917    -0.022    28.546     8.761
    43   6 C        2.930    -0.027    28.673     8.782
    44   6 C        2.972     0.010    27.794     8.648
    45   6 C        2.900    -0.034    28.857     8.808
    46   6 C        2.900    -0.039    28.963     8.824
    47   6 C        2.970     0.007    27.851     8.657
    48   6 C        2.930    -0.030    28.759     8.795
    49   6 C        2.917    -0.025    28.631     8.774
    50   6 C        2.920    -0.024    28.611     8.772
    51   6 C        2.921    -0.044    29.098     8.846
    52   6 C        3.112     0.060    26.502     8.433
    53   1 H        0.924     0.059     2.216     2.328
    54   1 H        0.925     0.079     1.988     2.205
    55   1 H        0.925     0.070     2.083     2.257
    56   1 H        0.926     0.049     2.328     2.386
    57   1 H        0.926     0.056     2.250     2.346
    58   1 H        0.926     0.049     2.327     2.385
    59   1 H        0.926     0.051     2.304     2.374
    60   1 H        0.926     0.047     2.352     2.398
    61   1 H        0.926     0.038     2.476     2.461
    62   1 H        0.926     0.040     2.444     2.445
    63   1 H        0.926     0.052     2.299     2.371
    64   1 H        0.926     0.048     2.351     2.398
    65   1 H        0.926     0.052     2.294     2.368
    66   1 H        0.926     0.050     2.324     2.384
    67   1 H        0.926     0.040     2.452     2.449
    68   1 H        0.925     0.060     2.201     2.320
    69   1 H        0.925     0.070     2.080     2.256
    70   1 H        0.924     0.056     2.241     2.341
    71   1 H        0.926     0.068     2.113     2.273
    72   1 H        0.926     0.069     2.093     2.262
    73   1 H        0.926     0.076     2.017     2.221
    74   1 H        0.926     0.083     1.945     2.181
    75   1 H        0.926     0.045     2.379     2.412
    76   1 H        0.926     0.060     2.196     2.317
    77   1 H        0.926     0.063     2.160     2.298
    78   1 H        0.926     0.060     2.198     2.318
    79   1 H        0.925     0.056     2.251     2.346
    80   1 H        0.925     0.048     2.344     2.394
    81   1 H        0.926     0.056     2.241     2.341
    82   1 H        0.926     0.058     2.217     2.329
    83   1 H        0.926     0.054     2.269     2.356
    84   1 H        0.926     0.045     2.380     2.413

 Mol. C6AA /au·bohr⁶  :     111609.108050
 Mol. C8AA /au·bohr⁸  :    3052611.522925
 Mol. α(0) /au        :        539.136226


Wiberg/Mayer (AO) data.
largest (>0.10) Wiberg bond orders for each atom

 ---------------------------------------------------------------------------
     #   Z sym  total        # sym  WBO       # sym  WBO       # sym  WBO
 ---------------------------------------------------------------------------
     1   6 C    3.957 --    54 H    0.976    53 H    0.973     2 N    0.969
                            55 H    0.961
     2   7 N    3.440 --    25 P    1.230     3 C    0.974     1 C    0.969
     3   6 C    3.946 --    12 C    1.458     4 C    1.284     2 N    0.974
     4   6 C    3.988 --     5 C    1.559     3 C    1.284    56 H    0.964
     5   6 C    3.983 --     4 C    1.559     6 C    1.270    57 H    0.966
                            12 C    0.105
     6   6 C    3.988 --     7 C    1.282     5 C    1.270    11 C    1.253
     7   6 C    3.988 --     8 C    1.553     6 C    1.282    58 H    0.967
                            10 C    0.117
     8   6 C    3.986 --     7 C    1.553     9 C    1.324    59 H    0.969
     9   6 C    3.990 --    10 C    1.551     8 C    1.324    60 H    0.970
    10   6 C    3.989 --     9 C    1.551    11 C    1.286    61 H    0.965
                             7 C    0.117
    11   6 C    3.987 --    10 C    1.286     6 C    1.253    12 C    1.230
    12   6 C    3.986 --     3 C    1.458    11 C    1.230    13 C    1.031
                             5 C    0.105
    13   6 C    3.985 --    14 C    1.452    22 C    1.234    12 C    1.031
                            16 C    0.105
    14   6 C    3.947 --    13 C    1.452    15 C    1.289    23 N    0.959
    15   6 C    3.986 --    16 C    1.555    14 C    1.289    62 H    0.962
    16   6 C    3.984 --    15 C    1.555    17 C    1.273    63 H    0.966
                            13 C    0.105
    17   6 C    3.988 --    18 C    1.282    16 C    1.273    22 C    1.253
    18   6 C    3.988 --    19 C    1.554    17 C    1.282    64 H    0.967
                            21 C    0.117
    19   6 C    3.986 --    18 C    1.554    20 C    1.323    65 H    0.969
    20   6 C    3.989 --    21 C    1.552    19 C    1.323    66 H    0.969
    21   6 C    3.989 --    20 C    1.552    22 C    1.285    67 H    0.966
                            18 C    0.117
    22   6 C    3.987 --    21 C    1.285    17 C    1.253    13 C    1.234
    23   7 N    3.385 --    25 P    1.195    24 C    0.972    14 C    0.959
    24   6 C    3.961 --    69 H    0.978    23 N    0.972    70 H    0.969
                            68 H    0.966
    25  15 P    5.137 --    38 N    1.234     2 N    1.230    23 N    1.195
                            26 S    1.023
    26  16 S    2.489 --    27 S    1.152    25 P    1.023
    27  16 S    2.341 --    26 S    1.152    28 C    0.989
    28   6 C    3.965 --    29 C    1.407    33 C    1.379    27 S    0.989
                            31 C    0.102
    29   6 C    3.987 --    30 C    1.439    28 C    1.407    71 H    0.960
                            32 C    0.105
    30   6 C    3.988 --    29 C    1.439    31 C    1.436    72 H    0.966
                            33 C    0.105
    31   6 C    3.979 --    30 C    1.436    32 C    1.435    73 H    0.966
                            28 C    0.102
    32   6 C    3.985 --    31 C    1.435    33 C    1.416    74 H    0.962
                            29 C    0.105
    33   6 C    3.976 --    32 C    1.416    28 C    1.379    34 C    0.948
                            30 C    0.105
    34   6 C    3.832 --    35 F    0.963    37 F    0.959    33 C    0.948
                            36 F    0.925
    35   9 F    1.089 --    34 C    0.963
    36   9 F    1.061 --    34 C    0.925
    37   9 F    1.091 --    34 C    0.959
    38   7 N    3.426 --    25 P    1.234    52 C    0.954    39 C    0.948
    39   6 C    3.948 --    40 C    1.407    44 C    1.337    38 N    0.948
    40   6 C    3.988 --    41 C    1.435    39 C    1.407    75 H    0.959
                            43 C    0.103
    41   6 C    3.982 --    40 C    1.435    42 C    1.423    76 H    0.968
    42   6 C    3.985 --    43 C    1.461    41 C    1.423    77 H    0.967
    43   6 C    3.981 --    42 C    1.461    44 C    1.363    78 H    0.966
                            40 C    0.103
    44   6 C    3.986 --    43 C    1.363    39 C    1.337    45 C    1.102
    45   6 C    3.988 --    46 C    1.770    44 C    1.102    79 H    0.961
    46   6 C    3.989 --    45 C    1.770    47 C    1.101    80 H    0.960
    47   6 C    3.987 --    48 C    1.364    52 C    1.334    46 C    1.101
    48   6 C    3.981 --    49 C    1.462    47 C    1.364    81 H    0.967
                            51 C    0.103
    49   6 C    3.987 --    48 C    1.462    50 C    1.421    82 H    0.968
    50   6 C    3.983 --    51 C    1.436    49 C    1.421    83 H    0.969
    51   6 C    3.988 --    50 C    1.436    52 C    1.407    84 H    0.959
                            48 C    0.103
    52   6 C    3.948 --    51 C    1.407    47 C    1.334    38 N    0.954
    53   1 H    0.996 --     1 C    0.973
    54   1 H    0.993 --     1 C    0.976
    55   1 H    0.994 --     1 C    0.961
    56   1 H    0.997 --     4 C    0.964
    57   1 H    0.995 --     5 C    0.966
    58   1 H    0.997 --     7 C    0.967
    59   1 H    0.997 --     8 C    0.969
    60   1 H    0.997 --     9 C    0.970
    61   1 H    0.998 --    10 C    0.965
    62   1 H    0.997 --    15 C    0.962
    63   1 H    0.996 --    16 C    0.966
    64   1 H    0.997 --    18 C    0.967
    65   1 H    0.996 --    19 C    0.969
    66   1 H    0.997 --    20 C    0.969
    67   1 H    0.998 --    21 C    0.966
    68   1 H    0.996 --    24 C    0.966
    69   1 H    0.994 --    24 C    0.978
    70   1 H    0.996 --    24 C    0.969
    71   1 H    0.995 --    29 C    0.960
    72   1 H    0.994 --    30 C    0.966
    73   1 H    0.993 --    31 C    0.966
    74   1 H    0.993 --    32 C    0.962
    75   1 H    0.997 --    40 C    0.959
    76   1 H    0.995 --    41 C    0.968
    77   1 H    0.995 --    42 C    0.967
    78   1 H    0.996 --    43 C    0.966
    79   1 H    0.996 --    45 C    0.961
    80   1 H    0.997 --    46 C    0.960
    81   1 H    0.996 --    48 C    0.967
    82   1 H    0.996 --    49 C    0.968
    83   1 H    0.996 --    50 C    0.969
    84   1 H    0.998 --    51 C    0.959
 ---------------------------------------------------------------------------

Topologies differ in total number of bonds
Writing topology from bond orders to xtbtopo.mol

molecular dipole:
                 x           y           z       tot (Debye)
 q only:        0.825      -0.116       0.525
   full:        0.520      -0.195       0.620       2.114
molecular quadrupole (traceless):
                xx          xy          yy          xz          yz          zz
 q only:      -10.434      13.770      23.782      -5.369       0.485     -13.348
  q+dip:       -5.680      15.637      14.347      -8.113       1.025      -8.667
   full:       -9.606      13.094      22.045      -7.174      -0.460     -12.439

           -------------------------------------------------
          |                Geometry Summary                 |
           -------------------------------------------------

      molecular mass/u    :      742.8344036
   center of mass at/Å    :       -0.3870871       0.0874317      -0.3670358
  moments of inertia/u·Å² :        0.7133069E+04   0.8343309E+04   0.1232657E+05
rotational constants/cm⁻¹ :        0.2363307E-02   0.2020497E-02   0.1367585E-02

 * 87 selected distances

     #   Z          #   Z                                           value/Å
     1   6 C        2   7 N                                       1.4587958
     2   7 N        3   6 C                                       1.4286936
     3   6 C        4   6 C                                       1.4075644
     4   6 C        5   6 C                                       1.3642966
     5   6 C        6   6 C                                       1.4114313
     6   6 C        7   6 C                                       1.4100522
     7   6 C        8   6 C                                       1.3668253
     8   6 C        9   6 C                                       1.4028698
     9   6 C       10   6 C                                       1.3677657
     6   6 C       11   6 C                                       1.4203975
    10   6 C       11   6 C                                       1.4110543
     3   6 C       12   6 C                                       1.3760996
    11   6 C       12   6 C                                       1.4247098
    13   6 C       14   6 C                                       1.3769490
    14   6 C       15   6 C                                       1.4052926
    15   6 C       16   6 C                                       1.3642191
    16   6 C       17   6 C                                       1.4095462
    17   6 C       18   6 C                                       1.4098078
    18   6 C       19   6 C                                       1.3667587
    19   6 C       20   6 C                                       1.4029459
    20   6 C       21   6 C                                       1.3675329
    13   6 C       22   6 C                                       1.4231187
    17   6 C       22   6 C                                       1.4192478
    21   6 C       22   6 C                                       1.4111101
    14   6 C       23   7 N                                       1.4364590
    23   7 N       24   6 C                                       1.4594065
     2   7 N       25  15 P                                       1.6559506
    23   7 N       25  15 P                                       1.6654937
    25  15 P       26  16 S                                       2.1116026 (max)
    26  16 S       27  16 S                                       2.0526936
    28   6 C       29   6 C                                       1.3882700
    29   6 C       30   6 C                                       1.3830015
    30   6 C       31   6 C                                       1.3847007
    31   6 C       32   6 C                                       1.3842484
    28   6 C       33   6 C                                       1.3948768
    32   6 C       33   6 C                                       1.3907970
    34   6 C       35   9 F                                       1.3332398
    34   6 C       36   9 F                                       1.3561700
    34   6 C       37   9 F                                       1.3353835
    25  15 P       38   7 N                                       1.6453888
    38   7 N       39   6 C                                       1.4352367
    39   6 C       40   6 C                                       1.3863395
    40   6 C       41   6 C                                       1.3834664
    41   6 C       42   6 C                                       1.3854575
    42   6 C       43   6 C                                       1.3797481
    39   6 C       44   6 C                                       1.3975353
    43   6 C       44   6 C                                       1.3971114
    45   6 C       46   6 C                                       1.3403130
    47   6 C       48   6 C                                       1.3977042
    48   6 C       49   6 C                                       1.3795508
    49   6 C       50   6 C                                       1.3854051
    50   6 C       51   6 C                                       1.3831984
    38   7 N       52   6 C                                       1.4323144
    47   6 C       52   6 C                                       1.3990222
    51   6 C       52   6 C                                       1.3863529
     1   6 C       53   1 H                                       1.0933237
     1   6 C       54   1 H                                       1.0892917
     1   6 C       55   1 H                                       1.0895660
     4   6 C       56   1 H                                       1.0776922
     5   6 C       57   1 H                                       1.0789984
     7   6 C       58   1 H                                       1.0796522
     8   6 C       59   1 H                                       1.0789678
     9   6 C       60   1 H                                       1.0792974
    10   6 C       61   1 H                                       1.0790139
    15   6 C       62   1 H                                       1.0770349 (min)
    16   6 C       63   1 H                                       1.0791168
    18   6 C       64   1 H                                       1.0797598
    19   6 C       65   1 H                                       1.0790274
    20   6 C       66   1 H                                       1.0792200
    21   6 C       67   1 H                                       1.0792355
    24   6 C       68   1 H                                       1.0886075
    24   6 C       69   1 H                                       1.0892023
    24   6 C       70   1 H                                       1.0930911
    29   6 C       71   1 H                                       1.0776180
    30   6 C       72   1 H                                       1.0787865
    31   6 C       73   1 H                                       1.0782468
    32   6 C       74   1 H                                       1.0790138
    40   6 C       75   1 H                                       1.0786560
    41   6 C       76   1 H                                       1.0783069
    42   6 C       77   1 H                                       1.0784485
    43   6 C       78   1 H                                       1.0792995
    45   6 C       79   1 H                                       1.0819040
    46   6 C       80   1 H                                       1.0833419
    48   6 C       81   1 H                                       1.0797885
    49   6 C       82   1 H                                       1.0785648
    50   6 C       83   1 H                                       1.0783482
    51   6 C       84   1 H                                       1.0785655

 * 7 distinct bonds (by element types)

   Z      Z             #   av. dist./Å        max./Å        min./Å
   1 H    6 C          32     1.0812184     1.0933237     1.0770349
   6 C    6 C          41     1.3913828     1.4247098     1.3403130
   6 C    7 N           6     1.4418177     1.4594065     1.4286936
   6 C    9 F           3     1.3415978     1.3561700     1.3332398
   7 N   15 P           3     1.6556110     1.6654937     1.6453888
  15 P   16 S           1     2.1116026     2.1116026     2.1116026
  16 S   16 S           1     2.0526936     2.0526936     2.0526936


optimized geometry written to: xtbopt.xyz


           -------------------------------------------------
          | TOTAL ENERGY             -140.112878463742 Eh   |
          | GRADIENT NORM               0.000026130830 Eh/α |
          | HOMO-LUMO GAP               2.080819012231 eV   |
           -------------------------------------------------

------------------------------------------------------------------------
 * finished run on 2024/12/16 at 16:35:37.592     
------------------------------------------------------------------------
 total:
 * wall-time:     0 d,  0 h,  1 min,  7.414 sec
 *  cpu-time:     0 d,  0 h,  8 min, 51.379 sec
 * ratio c/w:     7.882 speedup
 SCF:
 * wall-time:     0 d,  0 h,  0 min,  1.732 sec
 *  cpu-time:     0 d,  0 h,  0 min, 13.755 sec
 * ratio c/w:     7.942 speedup
 ANC optimizer:
 * wall-time:     0 d,  0 h,  1 min,  5.370 sec
 *  cpu-time:     0 d,  0 h,  8 min, 36.041 sec
 * ratio c/w:     7.894 speedup

