68
 energy: -98.792577388717 gnorm: 0.000040154234 xtb: 6.7.1 (edcfbbe)
C            3.55707697656182       -3.11262433852082        0.81374075867480
C            2.99878401810377       -2.18394852747789       -0.25938394130265
C            3.66771163726411       -2.43593607653117       -1.60849162400929
N            1.53100489290049       -2.27134508264010       -0.39180012095177
C            0.94350342080434       -3.56919716598336       -0.76303911697381
C            0.00151623017279       -3.38628755593458       -1.94737857280319
C            0.26255545650267       -4.26894680805896        0.40770511816415
P            0.71978089953324       -1.17746791574757        0.51497062897801
S            1.03431153346370       -1.09496012157785        2.60939660287113
S            2.26985498738242        0.51372441241467        2.81145896009029
C            1.10610154187815        1.86965883768248        2.85478435488121
C            0.02558274335044        1.84135964736010        3.72080336569878
C           -0.82775839129515        2.92848950282538        3.76637578776614
C           -0.59362111878856        4.03258990475705        2.96218822003680
C            0.48724516308575        4.04684643767497        2.09540243614178
C            1.34280581660553        2.96019897283380        2.03386423984023
O           -0.80500392642000       -1.41502814857807        0.21661193172452
C           -1.69207637473170       -0.54328332832702        0.90189540020242
C           -2.19800332010363       -0.92722224131313        2.13652053527386
C           -3.00660211651650       -0.05729911430981        2.84568476171802
C           -3.26547024016451        1.21766916452062        2.36075252178479
C           -2.74543868528479        1.58971498022077        1.13876927385103
C           -1.98340344435625        0.69705891290870        0.37894596402134
C           -1.65966582755283        1.29977861133672       -0.95771105716538
C           -1.72743917770476        2.81060892377873       -0.61766180446492
C           -2.82978476348575        2.91368574227273        0.44412243142359
C           -2.72708481665154        0.94495804230356       -2.02206692797992
C           -2.06462611758704        1.30769022152016       -3.35782454602487
C           -0.60678941209338        1.10811294610312       -3.07553605147829
C            0.43646278422238        1.02456919307205       -3.97401100250254
C            1.72010232751323        0.80298584510719       -3.49501223241594
C            1.93503360123225        0.58308078113372       -2.14629387708212
C            0.87146297617024        0.64078658401384       -1.25650976219938
C           -0.39312578891001        0.96835718833414       -1.69926104185362
O            1.10451135516136        0.30036781683301        0.10458660105458
H            3.09559576760980       -2.92020196360249        1.77995916751142
H            4.62645826267727       -2.94478914824402        0.90884247481889
H            3.40130325839371       -4.15576100538545        0.55226827807135
H            3.20299686284611       -1.14925290314042        0.04741106768872
H            3.14353824875382       -1.91228458463854       -2.40328940347926
H            4.69483603169786       -2.08342483186111       -1.57337689625196
H            3.68832495609273       -3.49558320018560       -1.84717039634572
H            1.78486248690614       -4.18330118817455       -1.09024100008790
H            0.50537794260783       -2.85611480600655       -2.75184832835825
H           -0.88249179109758       -2.82536282143588       -1.66034038647089
H           -0.31192668815483       -4.35932952258959       -2.31555895313563
H           -0.66165403997056       -3.76610076720720        0.67770199999479
H            0.01998932699968       -5.29095473801141        0.12784934315334
H            0.91700450406155       -4.29819362790342        1.27613723764860
H           -0.14230174458102        0.98235986437225        4.35314855509349
H           -1.66369422642491        2.91870365245526        4.44787095059729
H           -1.24706952634455        4.88965630774545        3.02084494601221
H            0.67222613078007        4.90773882869518        1.47103628223315
H            2.19307009545171        2.96020841803244        1.36955576153471
H           -1.94897977289574       -1.90061961155430        2.53013525209150
H           -3.40942510882783       -0.36705170262156        3.79656396490226
H           -3.86133375061546        1.90971746460972        2.93445093819796
H           -0.77388788036123        3.12274369963428       -0.18633850747868
H           -1.92504427287738        3.41972225211266       -1.49569910559991
H           -3.81352557777881        3.04213994451647       -0.01208595421987
H           -2.66990415153151        3.74434271546055        1.12980560691547
H           -3.66234935829798        1.47284531333120       -1.85543531834872
H           -2.92779113558776       -0.12745740727425       -1.98589695836544
H           -2.26116524866928        2.34596814365351       -3.63272018623470
H           -2.40959685249174        0.68000303949921       -4.17859811831729
H            0.25809925915381        1.13336904077823       -5.03215597160437
H            2.55427129016250        0.76810024170897       -4.17761478494871
H            2.92466886203428        0.37941465921563       -1.77180877221255
