      -----------------------------------------------------------      
     |                   =====================                   |     
     |                           x T B                           |     
     |                   =====================                   |     
     |                         S. Grimme                         |     
     |          Mulliken Center for Theoretical Chemistry        |     
     |                    University of Bonn                     |     
      -----------------------------------------------------------      

   * xtb version 6.7.1 (edcfbbe) compiled by 'conda@3ef47c1a292c' on 2024-11-25

   xtb is free software: you can redistribute it and/or modify it under
   the terms of the GNU Lesser General Public License as published by
   the Free Software Foundation, either version 3 of the License, or
   (at your option) any later version.
   
   xtb is distributed in the hope that it will be useful,
   but WITHOUT ANY WARRANTY; without even the implied warranty of
   MERCHANTABILITY or FITNESS FOR A PARTICULAR PURPOSE.  See the
   GNU Lesser General Public License for more details.
   
   Cite this work as:
   * C. Bannwarth, E. Caldeweyher, S. Ehlert, A. Hansen, P. Pracht,
     J. Seibert, S. Spicher, S. Grimme, WIREs Comput. Mol. Sci., 2020, 11,
     e01493. DOI: 10.1002/wcms.1493
   
   for GFN2-xTB:
   * C. Bannwarth, S. Ehlert and S. Grimme., J. Chem. Theory Comput., 2019,
     15, 1652-1671. DOI: 10.1021/acs.jctc.8b01176
   for GFN1-xTB:
   * S. Grimme, C. Bannwarth, P. Shushkov, J. Chem. Theory Comput., 2017,
     13, 1989-2009. DOI: 10.1021/acs.jctc.7b00118
   for GFN0-xTB:
   * P. Pracht, E. Caldeweyher, S. Ehlert, S. Grimme, ChemRxiv, 2019, preprint.
     DOI: 10.26434/chemrxiv.8326202.v1
   for GFN-FF:
   * S. Spicher and S. Grimme, Angew. Chem. Int. Ed., 2020, 59, 15665-15673.
     DOI: 10.1002/anie.202004239
   
   for ALPB and GBSA implicit solvation:
   * S. Ehlert, M. Stahn, S. Spicher, S. Grimme, J. Chem. Theory Comput.,
     2021, 17, 4250-4261. DOI: 10.1021/acs.jctc.1c00471
   
   for ddCOSMO and CPCM-X implicit solvation:
   * M. Stahn, S. Ehlert, S. Grimme, J. Phys. Chem. A,
     2023, XX, XXXX-XXXX. DOI: 10.1021/acs.jpca.3c04382
   
   for DFT-D4:
   * E. Caldeweyher, C. Bannwarth and S. Grimme, J. Chem. Phys., 2017,
     147, 034112. DOI: 10.1063/1.4993215
   * E. Caldeweyher, S. Ehlert, A. Hansen, H. Neugebauer, S. Spicher,
     C. Bannwarth and S. Grimme, J. Chem. Phys., 2019, 150, 154122.
     DOI: 10.1063/1.5090222
   * E. Caldeweyher, J.-M. Mewes, S. Ehlert and S. Grimme, Phys. Chem. Chem. Phys.
     2020, 22, 8499-8512. DOI: 10.1039/D0CP00502A
   
   for sTDA-xTB:
   * S. Grimme and C. Bannwarth, J. Chem. Phys., 2016, 145, 054103.
     DOI: 10.1063/1.4959605
   
   in the mass-spec context:
   * V. Asgeirsson, C. Bauer and S. Grimme, Chem. Sci., 2017, 8, 4879.
     DOI: 10.1039/c7sc00601b
   * J. Koopman and S. Grimme, ACS Omega 2019, 4, 12, 15120-15133.
     DOI: 10.1021/acsomega.9b02011
   
   for metadynamics refer to:
   * S. Grimme, J. Chem. Theory Comput., 2019, 155, 2847-2862
     DOI: 10.1021/acs.jctc.9b00143
   
   for SPH calculations refer to:
   * S. Spicher and S. Grimme, J. Chem. Theory Comput., 2021, 17, 1701-1714
     DOI: 10.1021/acs.jctc.0c01306
   
   for ONIOM refer to:
   * C. Plett, A. Katbashev, S. Ehlert, S. Grimme, M. Bursch,
     Phys. Chem. Chem. Phys., 2023, 25, 17860-17868. DOI: 10.1039/D3CP02178E
   
   for DIPRO refer to:
   * J. Kohn, N. Gildemeister, S. Grimme, D. Fazzi, A. Hansen,
     J. Chem. Phys., 2023, just accepted.
   
   for PTB refer to:
   * S. Grimme, M. Mueller, A. Hansen, J. Chem. Phys., 2023, 158, 124111.
     DOI: 10.1063/5.0137838
   
   with help from (in alphabetical order)
   P. Atkinson, C. Bannwarth, F. Bohle, G. Brandenburg, E. Caldeweyher
   M. Checinski, S. Dohm, S. Ehlert, S. Ehrlich, I. Gerasimov, C. Hölzer
   A. Katbashev, J. Kohn, J. Koopman, C. Lavigne, S. Lehtola, F. März, M. Müller,
   F. Musil, H. Neugebauer, J. Pisarek, C. Plett, P. Pracht, F. Pultar,
   J. Seibert, P. Shushkov, S. Spicher, M. Stahn, M. Steiner, T. Strunk,
   J. Stückrath, T. Rose, and J. Unsleber
   
 * started run on 2024/12/16 at 21:02:30.989     
   ID    Z sym.   atoms
    1    6 C      1, 3-7, 12-17, 19-35, 37-39
    2    8 O      2, 18, 36
    3   16 S      8, 9
    4   15 P      10
    5    7 N      11
    6    1 H      40-78

           -------------------------------------------------
          |                Calculation Setup                |
           -------------------------------------------------

          program call               : xtb --gfn2 --opt extreme -P 8 --charge 1 molecule.xyz
          hostname                   : node20
          coordinate file            : molecule.xyz
          omp threads                :                     8


           -------------------------------------------------
          |                 G F N 2 - x T B                 |
           -------------------------------------------------

        Reference                      10.1021/acs.jctc.8b01176
      * Hamiltonian:
        H0-scaling (s, p, d)           1.850000    2.230000    2.230000
        zeta-weighting                 0.500000
      * Dispersion:
        s8                             2.700000
        a1                             0.520000
        a2                             5.000000
        s9                             5.000000
      * Repulsion:
        kExp                           1.500000    1.000000
        rExp                           1.000000
      * Coulomb:
        alpha                          2.000000
        third order                    shell-resolved
        anisotropic                    true
        a3                             3.000000
        a5                             4.000000
        cn-shift                       1.200000
        cn-exp                         4.000000
        max-rad                        5.000000


          ...................................................
          :                      SETUP                      :
          :.................................................:
          :  # basis functions                 213          :
          :  # atomic orbitals                 210          :
          :  # shells                          120          :
          :  # electrons                       206          :
          :  max. iterations                   250          :
          :  Hamiltonian                  GFN2-xTB          :
          :  restarted?                      false          :
          :  GBSA solvation                  false          :
          :  PC potential                    false          :
          :  electronic temp.          300.0000000     K    :
          :  accuracy                    1.0000000          :
          :  -> integral cutoff          0.2500000E+02      :
          :  -> integral neglect         0.1000000E-07      :
          :  -> SCF convergence          0.1000000E-05 Eh   :
          :  -> wf. convergence          0.1000000E-03 e    :
          :  Broyden damping             0.4000000          :
          :  net charge                          1          :
          :  unpaired electrons                  0          :
          ...................................................

 iter      E             dE          RMSdq      gap      omega  full diag
   1   -113.6999970 -0.113700E+03  0.444E+00    2.69       0.0  T
   2   -113.8477773 -0.147780E+00  0.257E+00    2.61       1.0  T
   3   -113.8540541 -0.627673E-02  0.116E+00    2.36       1.0  T
   4   -113.8715900 -0.175360E-01  0.474E-01    2.17       1.0  T
   5   -113.8753211 -0.373107E-02  0.206E-01    2.26       1.0  T
   6   -113.8761748 -0.853750E-03  0.795E-02    2.26       1.0  T
   7   -113.8762337 -0.588538E-04  0.339E-02    2.27       1.0  T
   8   -113.8762614 -0.277286E-04  0.174E-02    2.27       1.0  T
   9   -113.8762690 -0.756867E-05  0.816E-03    2.27       1.4  T
  10   -113.8762698 -0.840806E-06  0.347E-03    2.27       3.3  T
  11   -113.8762701 -0.302654E-06  0.169E-03    2.27       6.7  T
  12   -113.8762702 -0.252150E-07  0.955E-04    2.27      11.9  T
  13   -113.8762702 -0.123662E-07  0.471E-04    2.27      24.0  T

   *** convergence criteria satisfied after 13 iterations ***

         #    Occupation            Energy/Eh            Energy/eV
      -------------------------------------------------------------
         1        2.0000           -0.8781628             -23.8960
       ...           ...                  ...                  ...
        97        2.0000           -0.5102681             -13.8851
        98        2.0000           -0.5057985             -13.7635
        99        2.0000           -0.5017012             -13.6520
       100        2.0000           -0.4926092             -13.4046
       101        2.0000           -0.4911439             -13.3647
       102        2.0000           -0.4880500             -13.2805
       103        2.0000           -0.4720561             -12.8453 (HOMO)
       104                         -0.3887240             -10.5777 (LUMO)
       105                         -0.3622462              -9.8572
       106                         -0.3435176              -9.3476
       107                         -0.3387837              -9.2188
       108                         -0.3367498              -9.1634
       ...                                ...                  ...
       210                          1.0058334              27.3701
      -------------------------------------------------------------
                  HL-Gap            0.0833321 Eh            2.2676 eV
             Fermi-level           -0.4303901 Eh          -11.7115 eV

 SCC (total)                   0 d,  0 h,  0 min,  2.060 sec
 SCC setup                      ...        0 min,  0.000 sec (  0.012%)
 Dispersion                     ...        0 min,  0.001 sec (  0.049%)
 classical contributions        ...        0 min,  0.004 sec (  0.218%)
 integral evaluation            ...        0 min,  0.006 sec (  0.273%)
 iterations                     ...        0 min,  1.931 sec ( 93.708%)
 molecular gradient             ...        0 min,  0.114 sec (  5.518%)
 printout                       ...        0 min,  0.005 sec (  0.221%)

         :::::::::::::::::::::::::::::::::::::::::::::::::::::
         ::                     SUMMARY                     ::
         :::::::::::::::::::::::::::::::::::::::::::::::::::::
         :: total energy            -112.343975072426 Eh    ::
         :: gradient norm              0.113830556425 Eh/a0 ::
         :: HOMO-LUMO gap              2.267582247774 eV    ::
         ::.................................................::
         :: SCC energy              -113.869101392276 Eh    ::
         :: -> isotropic ES            0.117460341289 Eh    ::
         :: -> anisotropic ES          0.001398274305 Eh    ::
         :: -> anisotropic XC          0.054413443896 Eh    ::
         :: -> dispersion             -0.112891171517 Eh    ::
         :: repulsion energy           1.525126319850 Eh    ::
         :: add. restraining           0.000000000000 Eh    ::
         :: total charge               1.000000000000 e     ::
         :::::::::::::::::::::::::::::::::::::::::::::::::::::

      ----------------------------------------------------------- 
     |                   =====================                   |
     |                        A N C O P T                        |
     |                   =====================                   |
     |               Approximate Normal Coordinate               |
     |                Rational Function Optimizer                |
      ----------------------------------------------------------- 
      ----------------------------------------------------------- 
     |                   =====================                   |
     |                        A N C O P T                        |
     |                   =====================                   |
     |               Approximate Normal Coordinate               |
     |                Rational Function Optimizer                |
      ----------------------------------------------------------- 

          ...................................................
          :                      SETUP                      :
          :.................................................:
          :   optimization level           extreme          :
          :   max. optcycles                  1560          :
          :   ANC micro-cycles                  20          :
          :   degrees of freedom               228          :
          :.................................................:
          :   RF solver                   davidson          :
          :   write xtbopt.log                true          :
          :   linear?                        false          :
          :   energy convergence         0.5000000E-07 Eh   :
          :   grad. convergence          0.5000000E-04 Eh/α :
          :   maxmium RF displ.          1.0000000          :
          :   Hlow (freq-cutoff)         0.1000000E-01      :
          :   Hmax (freq-cutoff)         5.0000000          :
          :   S6 in model hess.         20.0000000          :
          ...................................................

generating ANC from exact Hessian ...
Using Lindh-Hessian (1995)
 Shifting diagonal of input Hessian by    9.9523673439606535E-003
 Lowest  eigenvalues of input Hessian
    0.000000    0.000000    0.000000    0.000000    0.000000    0.000000
    0.010000    0.010192    0.010250    0.010323    0.010421    0.010543
    0.010582    0.010863    0.011374    0.011699    0.011803    0.011878
 Highest eigenvalues
    1.941809    2.000320    2.017607    2.034032    2.101948    2.126659


........................................................................
.............................. CYCLE    1 ..............................
........................................................................

 iter      E             dE          RMSdq      gap      omega  full diag
   1   -113.8762702 -0.113876E+03  0.246E-04    2.27       0.0  T
   2   -113.8762702 -0.488015E-09  0.178E-04    2.27      63.6  T
   3   -113.8762702 -0.260840E-09  0.138E-04    2.27      82.3  T
     SCC iter.                  ...        0 min,  0.317 sec
     gradient                   ...        0 min,  0.119 sec
 * total energy  :  -112.3439751 Eh     change       -0.3235982E-08 Eh
   gradient norm :     0.1138347 Eh/α   predicted     0.0000000E+00 (-100.00%)
   displ. norm   :     0.4117086 α      lambda       -0.2390040E-01
   maximum displ.:     0.1454927 α      in ANC's #36, #39, #37, ...

........................................................................
.............................. CYCLE    2 ..............................
........................................................................

 iter      E             dE          RMSdq      gap      omega  full diag
   1   -113.9399608 -0.113940E+03  0.240E-01    2.32       0.0  T
   2   -113.9402758 -0.315047E-03  0.150E-01    2.36       1.0  T
   3   -113.9402280  0.478003E-04  0.689E-02    2.36       1.0  T
   4   -113.9403874 -0.159398E-03  0.241E-02    2.37       1.0  T
   5   -113.9404054 -0.180294E-04  0.108E-02    2.37       1.0  T
   6   -113.9404070 -0.154166E-05  0.600E-03    2.37       1.9  T
   7   -113.9404078 -0.810671E-06  0.368E-03    2.37       3.1  T
   8   -113.9404080 -0.166323E-06  0.222E-03    2.37       5.1  T
   9   -113.9404080 -0.229802E-07  0.958E-04    2.37      11.8  T
  10   -113.9404080 -0.236655E-07  0.423E-04    2.37      26.7  T
     SCC iter.                  ...        0 min,  1.267 sec
     gradient                   ...        0 min,  0.115 sec
 * total energy  :  -112.3605441 Eh     change       -0.1656901E-01 Eh
   gradient norm :     0.0566587 Eh/α   predicted    -0.1399234E-01 ( -15.55%)
   displ. norm   :     0.3904192 α      lambda       -0.8651334E-02
   maximum displ.:     0.1259802 α      in ANC's #33, #36, #24, ...

........................................................................
.............................. CYCLE    3 ..............................
........................................................................

 iter      E             dE          RMSdq      gap      omega  full diag
   1   -113.9783613 -0.113978E+03  0.150E-01    2.39       0.0  T
   2   -113.9784835 -0.122184E-03  0.908E-02    2.42       1.0  T
   3   -113.9784600  0.235323E-04  0.455E-02    2.42       1.0  T
   4   -113.9785281 -0.680929E-04  0.131E-02    2.43       1.0  T
   5   -113.9785325 -0.444121E-05  0.583E-03    2.43       1.9  T
   6   -113.9785329 -0.442304E-06  0.313E-03    2.42       3.6  T
   7   -113.9785332 -0.256311E-06  0.171E-03    2.42       6.6  T
   8   -113.9785332 -0.497195E-07  0.884E-04    2.42      12.8  T
   9   -113.9785333 -0.429642E-08  0.451E-04    2.42      25.1  T
     SCC iter.                  ...        0 min,  1.408 sec
     gradient                   ...        0 min,  0.117 sec
 * total energy  :  -112.3658048 Eh     change       -0.5260670E-02 Eh
   gradient norm :     0.0259868 Eh/α   predicted    -0.4985021E-02 (  -5.24%)
   displ. norm   :     0.3455299 α      lambda       -0.2686996E-02
   maximum displ.:     0.1258411 α      in ANC's #24, #33, #18, ...

........................................................................
.............................. CYCLE    4 ..............................
........................................................................

 iter      E             dE          RMSdq      gap      omega  full diag
   1   -113.9843333 -0.113984E+03  0.139E-01    2.43       0.0  T
   2   -113.9843790 -0.457129E-04  0.760E-02    2.44       1.0  T
   3   -113.9843699  0.906415E-05  0.253E-02    2.44       1.0  T
   4   -113.9843837 -0.137908E-04  0.112E-02    2.44       1.0  T
   5   -113.9843884 -0.470933E-05  0.480E-03    2.44       2.4  T
   6   -113.9843887 -0.244175E-06  0.251E-03    2.44       4.5  T
   7   -113.9843888 -0.914435E-07  0.153E-03    2.44       7.4  T
   8   -113.9843888 -0.293499E-07  0.827E-04    2.44      13.7  T
   9   -113.9843888 -0.584635E-08  0.367E-04    2.44      30.9  T
     SCC iter.                  ...        0 min,  1.269 sec
     gradient                   ...        0 min,  0.113 sec
 * total energy  :  -112.3674335 Eh     change       -0.1628731E-02 Eh
   gradient norm :     0.0134388 Eh/α   predicted    -0.1504187E-02 (  -7.65%)
   displ. norm   :     0.3590818 α      lambda       -0.1566090E-02
   maximum displ.:     0.1281469 α      in ANC's #14, #24, #8, ...

........................................................................
.............................. CYCLE    5 ..............................
........................................................................

 iter      E             dE          RMSdq      gap      omega  full diag
   1   -113.9839932 -0.113984E+03  0.882E-02    2.45       0.0  T
   2   -113.9840124 -0.191636E-04  0.472E-02    2.45       1.0  T
   3   -113.9840116  0.823242E-06  0.159E-02    2.45       1.0  T
   4   -113.9840123 -0.773984E-06  0.821E-03    2.45       1.4  T
   5   -113.9840154 -0.305437E-05  0.299E-03    2.45       3.8  T
   6   -113.9840156 -0.251643E-06  0.125E-03    2.45       9.0  T
   7   -113.9840157 -0.190854E-07  0.701E-04    2.45      16.2  T
   8   -113.9840157 -0.322126E-08  0.353E-04    2.45      32.1  T
     SCC iter.                  ...        0 min,  0.958 sec
     gradient                   ...        0 min,  0.115 sec
 * total energy  :  -112.3684398 Eh     change       -0.1006317E-02 Eh
   gradient norm :     0.0089666 Eh/α   predicted    -0.8840157E-03 ( -12.15%)
   displ. norm   :     0.3072174 α      lambda       -0.7326258E-03
   maximum displ.:     0.1231776 α      in ANC's #14, #8, #16, ...

........................................................................
.............................. CYCLE    6 ..............................
........................................................................

 iter      E             dE          RMSdq      gap      omega  full diag
   1   -113.9816968 -0.113982E+03  0.697E-02    2.45       0.0  T
   2   -113.9817038 -0.695231E-05  0.387E-02    2.45       1.0  T
   3   -113.9816999  0.387094E-05  0.113E-02    2.45       1.0  T
   4   -113.9817048 -0.487891E-05  0.496E-03    2.45       2.3  T
   5   -113.9817056 -0.816277E-06  0.174E-03    2.45       6.5  T
   6   -113.9817057 -0.122472E-06  0.793E-04    2.45      14.3  T
   7   -113.9817057 -0.166630E-07  0.426E-04    2.45      26.6  T
     SCC iter.                  ...        0 min,  0.881 sec
     gradient                   ...        0 min,  0.113 sec
 * total energy  :  -112.3689774 Eh     change       -0.5375643E-03 Eh
   gradient norm :     0.0089194 Eh/α   predicted    -0.4008994E-03 ( -25.42%)
   displ. norm   :     0.3625335 α      lambda       -0.5916944E-03
   maximum displ.:     0.1505106 α      in ANC's #8, #14, #16, ...

........................................................................
.............................. CYCLE    7 ..............................
........................................................................

 iter      E             dE          RMSdq      gap      omega  full diag
   1   -113.9801422 -0.113980E+03  0.655E-02    2.45       0.0  T
   2   -113.9801471 -0.489543E-05  0.374E-02    2.44       1.0  T
   3   -113.9801428  0.434443E-05  0.106E-02    2.44       1.1  T
   4   -113.9801481 -0.537310E-05  0.390E-03    2.44       2.9  T
   5   -113.9801485 -0.389032E-06  0.128E-03    2.44       8.8  T
   6   -113.9801486 -0.366070E-07  0.654E-04    2.44      17.3  T
   7   -113.9801486 -0.127115E-07  0.300E-04    2.44      37.8  T
     SCC iter.                  ...        0 min,  0.819 sec
     gradient                   ...        0 min,  0.113 sec
 * total energy  :  -112.3694145 Eh     change       -0.4371600E-03 Eh
   gradient norm :     0.0083671 Eh/α   predicted    -0.3347300E-03 ( -23.43%)
   displ. norm   :     0.3740724 α      lambda       -0.4660281E-03
   maximum displ.:     0.1713087 α      in ANC's #8, #14, #2, ...

........................................................................
.............................. CYCLE    8 ..............................
........................................................................

 iter      E             dE          RMSdq      gap      omega  full diag
   1   -113.9805561 -0.113981E+03  0.595E-02    2.45       0.0  T
   2   -113.9805592 -0.301887E-05  0.342E-02    2.45       1.0  T
   3   -113.9805555  0.363265E-05  0.875E-03    2.45       1.3  T
   4   -113.9805598 -0.430469E-05  0.308E-03    2.45       3.7  T
   5   -113.9805601 -0.278638E-06  0.110E-03    2.45      10.3  T
   6   -113.9805601 -0.183823E-07  0.540E-04    2.45      21.0  T
   7   -113.9805601 -0.503981E-08  0.303E-04    2.45      37.3  T
     SCC iter.                  ...        0 min,  0.986 sec
     gradient                   ...        0 min,  0.113 sec
 * total energy  :  -112.3697687 Eh     change       -0.3542011E-03 Eh
   gradient norm :     0.0064669 Eh/α   predicted    -0.2656193E-03 ( -25.01%)
   displ. norm   :     0.3687286 α      lambda       -0.3863766E-03
   maximum displ.:     0.1871428 α      in ANC's #8, #2, #3, ...

........................................................................
.............................. CYCLE    9 ..............................
........................................................................

 iter      E             dE          RMSdq      gap      omega  full diag
   1   -113.9820307 -0.113982E+03  0.553E-02    2.45       0.0  T
   2   -113.9820344 -0.375848E-05  0.312E-02    2.45       1.0  T
   3   -113.9820327  0.174234E-05  0.817E-03    2.45       1.4  T
   4   -113.9820345 -0.178073E-05  0.370E-03    2.45       3.1  T
   5   -113.9820352 -0.717061E-06  0.117E-03    2.45       9.7  T
   6   -113.9820352 -0.411115E-07  0.416E-04    2.45      27.2  T
   7   -113.9820352 -0.182737E-08  0.203E-04    2.45      55.9  T
     SCC iter.                  ...        0 min,  0.970 sec
     gradient                   ...        0 min,  0.117 sec
 * total energy  :  -112.3700580 Eh     change       -0.2892544E-03 Eh
   gradient norm :     0.0044600 Eh/α   predicted    -0.2194631E-03 ( -24.13%)
   displ. norm   :     0.3301530 α      lambda       -0.2677407E-03
   maximum displ.:     0.1775013 α      in ANC's #8, #2, #3, ...

........................................................................
.............................. CYCLE   10 ..............................
........................................................................

 iter      E             dE          RMSdq      gap      omega  full diag
   1   -113.9837416 -0.113984E+03  0.475E-02    2.45       0.0  T
   2   -113.9837435 -0.195292E-05  0.269E-02    2.45       1.0  T
   3   -113.9837423  0.120898E-05  0.656E-03    2.45       1.7  T
   4   -113.9837437 -0.138243E-05  0.283E-03    2.45       4.0  T
   5   -113.9837440 -0.339535E-06  0.941E-04    2.45      12.0  T
   6   -113.9837440 -0.205616E-07  0.421E-04    2.45      26.9  T
     SCC iter.                  ...        0 min,  0.677 sec
     gradient                   ...        0 min,  0.111 sec
 * total energy  :  -112.3702637 Eh     change       -0.2057415E-03 Eh
   gradient norm :     0.0042129 Eh/α   predicted    -0.1484644E-03 ( -27.84%)
   displ. norm   :     0.3208949 α      lambda       -0.2237682E-03
   maximum displ.:     0.1757754 α      in ANC's #8, #3, #2, ...

........................................................................
.............................. CYCLE   11 ..............................
........................................................................

 iter      E             dE          RMSdq      gap      omega  full diag
   1   -113.9848844 -0.113985E+03  0.430E-02    2.45       0.0  T
   2   -113.9848858 -0.148795E-05  0.241E-02    2.45       1.0  T
   3   -113.9848851  0.734785E-06  0.577E-03    2.45       2.0  T
   4   -113.9848859 -0.790850E-06  0.267E-03    2.45       4.2  T
   5   -113.9848862 -0.310206E-06  0.818E-04    2.45      13.8  T
   6   -113.9848862 -0.132680E-07  0.369E-04    2.45      30.7  T
     SCC iter.                  ...        0 min,  0.791 sec
     gradient                   ...        0 min,  0.113 sec
 * total energy  :  -112.3704453 Eh     change       -0.1815810E-03 Eh
   gradient norm :     0.0044258 Eh/α   predicted    -0.1234104E-03 ( -32.04%)
   displ. norm   :     0.3684354 α      lambda       -0.2397122E-03
   maximum displ.:     0.1958924 α      in ANC's #8, #3, #2, ...

........................................................................
.............................. CYCLE   12 ..............................
........................................................................

 iter      E             dE          RMSdq      gap      omega  full diag
   1   -113.9853007 -0.113985E+03  0.488E-02    2.45       0.0  T
   2   -113.9853025 -0.181184E-05  0.270E-02    2.45       1.0  T
   3   -113.9853013  0.119055E-05  0.674E-03    2.45       1.7  T
   4   -113.9853026 -0.129011E-05  0.327E-03    2.45       3.5  T
   5   -113.9853031 -0.444353E-06  0.843E-04    2.45      13.4  T
   6   -113.9853031 -0.205377E-07  0.476E-04    2.45      23.8  T
     SCC iter.                  ...        0 min,  0.836 sec
     gradient                   ...        0 min,  0.113 sec
 * total energy  :  -112.3706405 Eh     change       -0.1951936E-03 Eh
   gradient norm :     0.0042390 Eh/α   predicted    -0.1361268E-03 ( -30.26%)
   displ. norm   :     0.4088381 α      lambda       -0.2366635E-03
   maximum displ.:     0.2149659 α      in ANC's #3, #8, #2, ...

........................................................................
.............................. CYCLE   13 ..............................
........................................................................

 iter      E             dE          RMSdq      gap      omega  full diag
   1   -113.9851354 -0.113985E+03  0.521E-02    2.46       0.0  T
   2   -113.9851379 -0.251965E-05  0.284E-02    2.46       1.0  T
   3   -113.9851370  0.937408E-06  0.706E-03    2.46       1.6  T
   4   -113.9851379 -0.888491E-06  0.361E-03    2.46       3.1  T
   5   -113.9851385 -0.652352E-06  0.974E-04    2.46      11.6  T
   6   -113.9851385 -0.330021E-07  0.478E-04    2.46      23.7  T
     SCC iter.                  ...        0 min,  0.698 sec
     gradient                   ...        0 min,  0.113 sec
 * total energy  :  -112.3708244 Eh     change       -0.1838759E-03 Eh
   gradient norm :     0.0037384 Eh/α   predicted    -0.1381115E-03 ( -24.89%)
   displ. norm   :     0.3659495 α      lambda       -0.1738264E-03
   maximum displ.:     0.1990496 α      in ANC's #3, #8, #2, ...

........................................................................
.............................. CYCLE   14 ..............................
........................................................................

 iter      E             dE          RMSdq      gap      omega  full diag
   1   -113.9843849 -0.113984E+03  0.474E-02    2.46       0.0  T
   2   -113.9843874 -0.257637E-05  0.251E-02    2.46       1.0  T
   3   -113.9843867  0.737402E-06  0.683E-03    2.46       1.7  T
   4   -113.9843875 -0.809262E-06  0.337E-03    2.46       3.4  T
   5   -113.9843880 -0.495087E-06  0.934E-04    2.46      12.1  T
   6   -113.9843880 -0.343399E-07  0.448E-04    2.46      25.3  T
     SCC iter.                  ...        0 min,  0.746 sec
     gradient                   ...        0 min,  0.113 sec
 * total energy  :  -112.3709566 Eh     change       -0.1321896E-03 Eh
   gradient norm :     0.0033150 Eh/α   predicted    -0.9855318E-04 ( -25.45%)
   displ. norm   :     0.2886666 α      lambda       -0.1360847E-03
   maximum displ.:     0.1660704 α      in ANC's #3, #2, #8, ...

........................................................................
.............................. CYCLE   15 ..............................
........................................................................

 iter      E             dE          RMSdq      gap      omega  full diag
   1   -113.9850915 -0.113985E+03  0.364E-02    2.47       0.0  T
   2   -113.9850930 -0.148307E-05  0.190E-02    2.47       1.0  T
   3   -113.9850927  0.277646E-06  0.496E-03    2.47       2.3  T
   4   -113.9850930 -0.323993E-06  0.244E-03    2.47       4.6  T
   5   -113.9850933 -0.264793E-06  0.670E-04    2.47      16.9  T
   6   -113.9850933 -0.174012E-07  0.314E-04    2.47      36.0  T
     SCC iter.                  ...        0 min,  0.845 sec
     gradient                   ...        0 min,  0.122 sec
 * total energy  :  -112.3710548 Eh     change       -0.9822027E-04 Eh
   gradient norm :     0.0035998 Eh/α   predicted    -0.7371465E-04 ( -24.95%)
   displ. norm   :     0.2950912 α      lambda       -0.1316182E-03
   maximum displ.:     0.1631980 α      in ANC's #3, #2, #6, ...

........................................................................
.............................. CYCLE   16 ..............................
........................................................................

 iter      E             dE          RMSdq      gap      omega  full diag
   1   -113.9836470 -0.113984E+03  0.368E-02    2.48       0.0  T
   2   -113.9836488 -0.180971E-05  0.200E-02    2.48       1.0  T
   3   -113.9836476  0.119084E-05  0.612E-03    2.48       1.8  T
   4   -113.9836491 -0.147391E-05  0.255E-03    2.48       4.4  T
   5   -113.9836492 -0.188060E-06  0.740E-04    2.48      15.3  T
   6   -113.9836493 -0.182555E-07  0.341E-04    2.48      33.2  T
     SCC iter.                  ...        0 min,  0.767 sec
     gradient                   ...        0 min,  0.117 sec
 * total energy  :  -112.3711401 Eh     change       -0.8526404E-04 Eh
   gradient norm :     0.0034273 Eh/α   predicted    -0.7154191E-04 ( -16.09%)
   displ. norm   :     0.2148972 α      lambda       -0.1018102E-03
   maximum displ.:     0.1170694 α      in ANC's #3, #2, #1, ...

........................................................................
.............................. CYCLE   17 ..............................
........................................................................

 iter      E             dE          RMSdq      gap      omega  full diag
   1   -113.9846209 -0.113985E+03  0.263E-02    2.48       0.0  T
   2   -113.9846215 -0.616842E-06  0.145E-02    2.48       1.0  T
   3   -113.9846212  0.299895E-06  0.352E-03    2.48       3.2  T
   4   -113.9846215 -0.291914E-06  0.174E-03    2.48       6.5  T
   5   -113.9846217 -0.153953E-06  0.459E-04    2.48      24.6  T
   6   -113.9846217 -0.824393E-08  0.191E-04    2.48      59.2  T
     SCC iter.                  ...        0 min,  0.796 sec
     gradient                   ...        0 min,  0.113 sec
 * total energy  :  -112.3712148 Eh     change       -0.7477194E-04 Eh
   gradient norm :     0.0033894 Eh/α   predicted    -0.5325881E-04 ( -28.77%)
   displ. norm   :     0.2157240 α      lambda       -0.9393727E-04
   maximum displ.:     0.1116929 α      in ANC's #3, #2, #1, ...

........................................................................
.............................. CYCLE   18 ..............................
........................................................................

 iter      E             dE          RMSdq      gap      omega  full diag
   1   -113.9849573 -0.113985E+03  0.246E-02    2.48       0.0  T
   2   -113.9849578 -0.583443E-06  0.139E-02    2.48       1.0  T
   3   -113.9849575  0.304527E-06  0.342E-03    2.48       3.3  T
   4   -113.9849579 -0.350599E-06  0.147E-03    2.48       7.7  T
   5   -113.9849580 -0.824601E-07  0.510E-04    2.48      22.2  T
   6   -113.9849580 -0.135154E-07  0.178E-04    2.48      63.8  T
     SCC iter.                  ...        0 min,  0.726 sec
     gradient                   ...        0 min,  0.115 sec
 * total energy  :  -112.3712872 Eh     change       -0.7236482E-04 Eh
   gradient norm :     0.0030820 Eh/α   predicted    -0.4915769E-04 ( -32.07%)
   displ. norm   :     0.2332572 α      lambda       -0.9393918E-04
   maximum displ.:     0.1151381 α      in ANC's #3, #2, #1, ...

........................................................................
.............................. CYCLE   19 ..............................
........................................................................

 iter      E             dE          RMSdq      gap      omega  full diag
   1   -113.9854867 -0.113985E+03  0.267E-02    2.48       0.0  T
   2   -113.9854873 -0.678272E-06  0.149E-02    2.48       1.0  T
   3   -113.9854870  0.299376E-06  0.381E-03    2.48       3.0  T
   4   -113.9854874 -0.396971E-06  0.154E-03    2.48       7.4  T
   5   -113.9854875 -0.669859E-07  0.475E-04    2.48      23.8  T
   6   -113.9854875 -0.833124E-08  0.205E-04    2.48      55.2  T
     SCC iter.                  ...        0 min,  0.862 sec
     gradient                   ...        0 min,  0.113 sec
 * total energy  :  -112.3713570 Eh     change       -0.6977006E-04 Eh
   gradient norm :     0.0027814 Eh/α   predicted    -0.4952816E-04 ( -29.01%)
   displ. norm   :     0.2192670 α      lambda       -0.7601381E-04
   maximum displ.:     0.1054178 α      in ANC's #3, #1, #2, ...

........................................................................
.............................. CYCLE   20 ..............................
........................................................................

 iter      E             dE          RMSdq      gap      omega  full diag
   1   -113.9854410 -0.113985E+03  0.246E-02    2.48       0.0  T
   2   -113.9854415 -0.535560E-06  0.138E-02    2.48       1.0  T
   3   -113.9854413  0.231812E-06  0.342E-03    2.48       3.3  T
   4   -113.9854416 -0.319497E-06  0.137E-03    2.48       8.3  T
   5   -113.9854416 -0.428950E-07  0.397E-04    2.48      28.5  T
   6   -113.9854416 -0.379566E-08  0.197E-04    2.48      57.6  T
     SCC iter.                  ...        0 min,  0.746 sec
     gradient                   ...        0 min,  0.114 sec
 * total energy  :  -112.3714141 Eh     change       -0.5716314E-04 Eh
   gradient norm :     0.0027488 Eh/α   predicted    -0.3983756E-04 ( -30.31%)
   displ. norm   :     0.2280825 α      lambda       -0.7346517E-04
   maximum displ.:     0.1164544 α      in ANC's #1, #3, #2, ...
 * RMSD in coord.:     0.5001090 α      energy gain  -0.2743905E-01 Eh

generating ANC from exact Hessian ...
Using Lindh-Hessian (1995)
 Shifting diagonal of input Hessian by    9.9346112567812884E-003
 Lowest  eigenvalues of input Hessian
    0.000000    0.000000    0.000000    0.000000    0.000000    0.000000
    0.010000    0.010246    0.010350    0.010426    0.010495    0.010694
    0.010788    0.011301    0.011537    0.011785    0.011928    0.012050
 Highest eigenvalues
    2.017975    2.038696    2.048401    2.116717    2.118605    2.258480


........................................................................
.............................. CYCLE   21 ..............................
........................................................................

 iter      E             dE          RMSdq      gap      omega  full diag
   1   -113.9856236 -0.113986E+03  0.248E-02    2.48       0.0  T
   2   -113.9856240 -0.364319E-06  0.141E-02    2.48       1.0  T
   3   -113.9856238  0.125767E-06  0.288E-03    2.48       3.9  T
   4   -113.9856240 -0.173339E-06  0.132E-03    2.48       8.6  T
   5   -113.9856240 -0.473111E-07  0.376E-04    2.48      30.1  T
   6   -113.9856240 -0.355908E-08  0.207E-04    2.48      54.6  T
     SCC iter.                  ...        0 min,  0.699 sec
     gradient                   ...        0 min,  0.113 sec
 * total energy  :  -112.3714690 Eh     change       -0.5492457E-04 Eh
   gradient norm :     0.0028218 Eh/α   predicted     0.0000000E+00 (-100.00%)
   displ. norm   :     0.0361885 α      lambda       -0.2693398E-04
   maximum displ.:     0.0171062 α      in ANC's #1, #10, #32, ...

........................................................................
.............................. CYCLE   22 ..............................
........................................................................

 iter      E             dE          RMSdq      gap      omega  full diag
   1   -113.9854675 -0.113985E+03  0.861E-03    2.48       0.0  T
   2   -113.9854676 -0.917782E-07  0.477E-03    2.48       2.4  T
   3   -113.9854676  0.317417E-07  0.127E-03    2.48       8.9  T
   4   -113.9854676 -0.476513E-07  0.485E-04    2.48      23.4  T
   5   -113.9854676 -0.473042E-08  0.154E-04    2.48      73.4  T
     SCC iter.                  ...        0 min,  0.614 sec
     gradient                   ...        0 min,  0.117 sec
 * total energy  :  -112.3714945 Eh     change       -0.2545045E-04 Eh
   gradient norm :     0.0016548 Eh/α   predicted    -0.1489378E-04 ( -41.48%)
   displ. norm   :     0.1906230 α      lambda       -0.7104028E-04
   maximum displ.:     0.0943362 α      in ANC's #1, #10, #32, ...

........................................................................
.............................. CYCLE   23 ..............................
........................................................................

 iter      E             dE          RMSdq      gap      omega  full diag
   1   -113.9847007 -0.113985E+03  0.371E-02    2.49       0.0  T
   2   -113.9847017 -0.962538E-06  0.212E-02    2.49       1.0  T
   3   -113.9847012  0.527827E-06  0.430E-03    2.49       2.6  T
   4   -113.9847019 -0.706093E-06  0.166E-03    2.49       6.8  T
   5   -113.9847020 -0.733971E-07  0.542E-04    2.49      20.9  T
   6   -113.9847020 -0.586554E-08  0.226E-04    2.49      50.1  T
     SCC iter.                  ...        0 min,  0.854 sec
     gradient                   ...        0 min,  0.113 sec
 * total energy  :  -112.3715405 Eh     change       -0.4599478E-04 Eh
   gradient norm :     0.0031169 Eh/α   predicted    -0.3609442E-04 ( -21.52%)
   displ. norm   :     0.0288897 α      lambda       -0.1740941E-04
   maximum displ.:     0.0180427 α      in ANC's #1, #10, #26, ...

........................................................................
.............................. CYCLE   24 ..............................
........................................................................

 iter      E             dE          RMSdq      gap      omega  full diag
   1   -113.9850212 -0.113985E+03  0.603E-03    2.49       0.0  T
   2   -113.9850213 -0.102994E-06  0.324E-03    2.49       3.5  T
   3   -113.9850212  0.191065E-07  0.118E-03    2.49       9.6  T
   4   -113.9850213 -0.320135E-07  0.479E-04    2.49      23.6  T
   5   -113.9850213 -0.496635E-08  0.179E-04    2.49      63.1  T
     SCC iter.                  ...        0 min,  0.608 sec
     gradient                   ...        0 min,  0.113 sec
 * total energy  :  -112.3715551 Eh     change       -0.1464894E-04 Eh
   gradient norm :     0.0022598 Eh/α   predicted    -0.8712361E-05 ( -40.53%)
   displ. norm   :     0.1090318 α      lambda       -0.5053405E-04
   maximum displ.:     0.0681490 α      in ANC's #1, #8, #10, ...

........................................................................
.............................. CYCLE   25 ..............................
........................................................................

 iter      E             dE          RMSdq      gap      omega  full diag
   1   -113.9859165 -0.113986E+03  0.168E-02    2.48       0.0  T
   2   -113.9859172 -0.767866E-06  0.967E-03    2.49       1.2  T
   3   -113.9859169  0.348917E-06  0.384E-03    2.49       2.9  T
   4   -113.9859174 -0.514423E-06  0.105E-03    2.49      10.8  T
   5   -113.9859174 -0.255440E-07  0.415E-04    2.49      27.3  T
   6   -113.9859174 -0.265526E-08  0.222E-04    2.49      50.9  T
     SCC iter.                  ...        0 min,  0.839 sec
     gradient                   ...        0 min,  0.114 sec
 * total energy  :  -112.3715842 Eh     change       -0.2902399E-04 Eh
   gradient norm :     0.0016653 Eh/α   predicted    -0.2556781E-04 ( -11.91%)
   displ. norm   :     0.1289754 α      lambda       -0.1854823E-04
   maximum displ.:     0.0832489 α      in ANC's #1, #5, #26, ...

........................................................................
.............................. CYCLE   26 ..............................
........................................................................

 iter      E             dE          RMSdq      gap      omega  full diag
   1   -113.9856699 -0.113986E+03  0.191E-02    2.48       0.0  T
   2   -113.9856703 -0.473852E-06  0.100E-02    2.48       1.1  T
   3   -113.9856703  0.565538E-07  0.269E-03    2.48       4.2  T
   4   -113.9856704 -0.742600E-07  0.134E-03    2.48       8.5  T
   5   -113.9856704 -0.653912E-07  0.395E-04    2.48      28.7  T
   6   -113.9856704 -0.395229E-08  0.166E-04    2.48      68.4  T
     SCC iter.                  ...        0 min,  0.720 sec
     gradient                   ...        0 min,  0.114 sec
 * total energy  :  -112.3716036 Eh     change       -0.1948089E-04 Eh
   gradient norm :     0.0021517 Eh/α   predicted    -0.9343183E-05 ( -52.04%)
   displ. norm   :     0.0906978 α      lambda       -0.2123848E-04
   maximum displ.:     0.0599495 α      in ANC's #1, #5, #8, ...

........................................................................
.............................. CYCLE   27 ..............................
........................................................................

 iter      E             dE          RMSdq      gap      omega  full diag
   1   -113.9853994 -0.113985E+03  0.108E-02    2.48       0.0  T
   2   -113.9853994 -0.730707E-07  0.613E-03    2.48       1.8  T
   3   -113.9853994  0.437035E-07  0.126E-03    2.48       9.0  T
   4   -113.9853995 -0.531207E-07  0.570E-04    2.48      19.9  T
   5   -113.9853995 -0.110506E-07  0.160E-04    2.48      71.0  T
     SCC iter.                  ...        0 min,  0.587 sec
     gradient                   ...        0 min,  0.117 sec
 * total energy  :  -112.3716225 Eh     change       -0.1889539E-04 Eh
   gradient norm :     0.0015831 Eh/α   predicted    -0.1070692E-04 ( -43.34%)
   displ. norm   :     0.2450639 α      lambda       -0.3780004E-04
   maximum displ.:     0.1642992 α      in ANC's #1, #5, #7, ...

........................................................................
.............................. CYCLE   28 ..............................
........................................................................

 iter      E             dE          RMSdq      gap      omega  full diag
   1   -113.9846301 -0.113985E+03  0.274E-02    2.49       0.0  T
   2   -113.9846306 -0.524369E-06  0.159E-02    2.49       1.0  T
   3   -113.9846301  0.583017E-06  0.359E-03    2.49       3.2  T
   4   -113.9846308 -0.701514E-06  0.131E-03    2.49       8.6  T
   5   -113.9846308 -0.497641E-07  0.459E-04    2.49      24.6  T
   6   -113.9846308 -0.459877E-08  0.230E-04    2.49      49.1  T
     SCC iter.                  ...        0 min,  0.804 sec
     gradient                   ...        0 min,  0.113 sec
 * total energy  :  -112.3716638 Eh     change       -0.4121591E-04 Eh
   gradient norm :     0.0015442 Eh/α   predicted    -0.1940616E-04 ( -52.92%)
   displ. norm   :     0.2121090 α      lambda       -0.2525100E-04
   maximum displ.:     0.1458008 α      in ANC's #1, #7, #5, ...

........................................................................
.............................. CYCLE   29 ..............................
........................................................................

 iter      E             dE          RMSdq      gap      omega  full diag
   1   -113.9844425 -0.113984E+03  0.231E-02    2.49       0.0  T
   2   -113.9844428 -0.300234E-06  0.132E-02    2.49       1.0  T
   3   -113.9844426  0.202870E-06  0.264E-03    2.49       4.3  T
   4   -113.9844429 -0.245511E-06  0.118E-03    2.49       9.6  T
   5   -113.9844429 -0.449558E-07  0.357E-04    2.49      31.7  T
   6   -113.9844429 -0.417594E-08  0.169E-04    2.49      67.0  T
     SCC iter.                  ...        0 min,  0.603 sec
     gradient                   ...        0 min,  0.119 sec
 * total energy  :  -112.3716958 Eh     change       -0.3200491E-04 Eh
   gradient norm :     0.0020881 Eh/α   predicted    -0.1287954E-04 ( -59.76%)
   displ. norm   :     0.1589475 α      lambda       -0.3472691E-04
   maximum displ.:     0.1117906 α      in ANC's #1, #7, #27, ...

........................................................................
.............................. CYCLE   30 ..............................
........................................................................

 iter      E             dE          RMSdq      gap      omega  full diag
   1   -113.9848373 -0.113985E+03  0.171E-02    2.49       0.0  T
   2   -113.9848374 -0.162880E-06  0.978E-03    2.49       1.2  T
   3   -113.9848373  0.121387E-06  0.192E-03    2.49       5.9  T
   4   -113.9848374 -0.139533E-06  0.870E-04    2.49      13.0  T
   5   -113.9848375 -0.331820E-07  0.259E-04    2.49      43.7  T
     SCC iter.                  ...        0 min,  0.545 sec
     gradient                   ...        0 min,  0.113 sec
 * total energy  :  -112.3717267 Eh     change       -0.3091099E-04 Eh
   gradient norm :     0.0018304 Eh/α   predicted    -0.1780347E-04 ( -42.40%)
   displ. norm   :     0.3877069 α      lambda       -0.5258377E-04
   maximum displ.:     0.2718433 α      in ANC's #1, #7, #6, ...

........................................................................
.............................. CYCLE   31 ..............................
........................................................................

 iter      E             dE          RMSdq      gap      omega  full diag
   1   -113.9845147 -0.113985E+03  0.422E-02    2.49       0.0  T
   2   -113.9845158 -0.101687E-05  0.243E-02    2.49       1.0  T
   3   -113.9845152  0.569815E-06  0.442E-03    2.49       2.6  T
   4   -113.9845159 -0.693202E-06  0.195E-03    2.49       5.8  T
   5   -113.9845160 -0.156775E-06  0.638E-04    2.49      17.7  T
   6   -113.9845160 -0.110175E-07  0.314E-04    2.49      36.0  T
     SCC iter.                  ...        0 min,  0.909 sec
     gradient                   ...        0 min,  0.123 sec
 * total energy  :  -112.3717852 Eh     change       -0.5857387E-04 Eh
   gradient norm :     0.0026089 Eh/α   predicted    -0.2805050E-04 ( -52.11%)
   displ. norm   :     0.1775057 α      lambda       -0.4355462E-04
   maximum displ.:     0.1321175 α      in ANC's #1, #7, #10, ...

........................................................................
.............................. CYCLE   32 ..............................
........................................................................

 iter      E             dE          RMSdq      gap      omega  full diag
   1   -113.9853179 -0.113985E+03  0.209E-02    2.50       0.0  T
   2   -113.9853182 -0.307372E-06  0.119E-02    2.50       1.0  T
   3   -113.9853182  0.738855E-07  0.229E-03    2.50       4.9  T
   4   -113.9853183 -0.990270E-07  0.107E-03    2.50      10.6  T
   5   -113.9853183 -0.521025E-07  0.415E-04    2.50      27.3  T
   6   -113.9853183 -0.374190E-08  0.211E-04    2.50      53.7  T
     SCC iter.                  ...        0 min,  0.814 sec
     gradient                   ...        0 min,  0.114 sec
 * total energy  :  -112.3718189 Eh     change       -0.3362673E-04 Eh
   gradient norm :     0.0013764 Eh/α   predicted    -0.2246428E-04 ( -33.20%)
   displ. norm   :     0.3094240 α      lambda       -0.3701002E-04
   maximum displ.:     0.2346721 α      in ANC's #1, #7, #6, ...

........................................................................
.............................. CYCLE   33 ..............................
........................................................................

 iter      E             dE          RMSdq      gap      omega  full diag
   1   -113.9853588 -0.113985E+03  0.344E-02    2.50       0.0  T
   2   -113.9853594 -0.583745E-06  0.198E-02    2.50       1.0  T
   3   -113.9853591  0.293854E-06  0.347E-03    2.50       3.3  T
   4   -113.9853594 -0.348218E-06  0.161E-03    2.50       7.1  T
   5   -113.9853596 -0.128905E-06  0.467E-04    2.50      24.2  T
   6   -113.9853596 -0.366657E-08  0.251E-04    2.50      45.2  T
     SCC iter.                  ...        0 min,  0.843 sec
     gradient                   ...        0 min,  0.113 sec
 * total energy  :  -112.3718635 Eh     change       -0.4465068E-04 Eh
   gradient norm :     0.0018689 Eh/α   predicted    -0.1929577E-04 ( -56.79%)
   displ. norm   :     0.2158833 α      lambda       -0.3190282E-04
   maximum displ.:     0.1744718 α      in ANC's #1, #7, #6, ...

........................................................................
.............................. CYCLE   34 ..............................
........................................................................

 iter      E             dE          RMSdq      gap      omega  full diag
   1   -113.9860756 -0.113986E+03  0.244E-02    2.50       0.0  T
   2   -113.9860759 -0.309494E-06  0.140E-02    2.50       1.0  T
   3   -113.9860757  0.155270E-06  0.251E-03    2.50       4.5  T
   4   -113.9860759 -0.196361E-06  0.115E-03    2.50       9.9  T
   5   -113.9860760 -0.510045E-07  0.373E-04    2.50      30.4  T
   6   -113.9860760 -0.303548E-08  0.202E-04    2.50      56.0  T
     SCC iter.                  ...        0 min,  0.546 sec
     gradient                   ...        0 min,  0.115 sec
 * total energy  :  -112.3719028 Eh     change       -0.3927064E-04 Eh
   gradient norm :     0.0016173 Eh/α   predicted    -0.1628395E-04 ( -58.53%)
   displ. norm   :     0.2535279 α      lambda       -0.3298372E-04
   maximum displ.:     0.2053546 α      in ANC's #1, #7, #22, ...

........................................................................
.............................. CYCLE   35 ..............................
........................................................................

 iter      E             dE          RMSdq      gap      omega  full diag
   1   -113.9853222 -0.113985E+03  0.272E-02    2.50       0.0  T
   2   -113.9853226 -0.410176E-06  0.156E-02    2.50       1.0  T
   3   -113.9853224  0.158219E-06  0.261E-03    2.51       4.3  T
   4   -113.9853226 -0.208868E-06  0.118E-03    2.50       9.6  T
   5   -113.9853227 -0.497922E-07  0.374E-04    2.50      30.3  T
   6   -113.9853227 -0.481796E-08  0.187E-04    2.50      60.5  T
     SCC iter.                  ...        0 min,  0.736 sec
     gradient                   ...        0 min,  0.113 sec
 * total energy  :  -112.3719423 Eh     change       -0.3948402E-04 Eh
   gradient norm :     0.0021550 Eh/α   predicted    -0.1696458E-04 ( -57.03%)
   displ. norm   :     0.1309808 α      lambda       -0.3159188E-04
   maximum displ.:     0.1109092 α      in ANC's #1, #7, #2, ...

........................................................................
.............................. CYCLE   36 ..............................
........................................................................

 iter      E             dE          RMSdq      gap      omega  full diag
   1   -113.9855692 -0.113986E+03  0.136E-02    2.51       0.0  T
   2   -113.9855693 -0.112807E-06  0.780E-03    2.51       1.5  T
   3   -113.9855693  0.467000E-07  0.131E-03    2.51       8.6  T
   4   -113.9855693 -0.586256E-07  0.617E-04    2.51      18.4  T
   5   -113.9855693 -0.168714E-07  0.192E-04    2.51      59.0  T
     SCC iter.                  ...        0 min,  0.702 sec
     gradient                   ...        0 min,  0.117 sec
 * total energy  :  -112.3719695 Eh     change       -0.2723299E-04 Eh
   gradient norm :     0.0012131 Eh/α   predicted    -0.1606848E-04 ( -41.00%)
   displ. norm   :     0.2459991 α      lambda       -0.3481156E-04
   maximum displ.:     0.2098039 α      in ANC's #1, #7, #2, ...

........................................................................
.............................. CYCLE   37 ..............................
........................................................................

 iter      E             dE          RMSdq      gap      omega  full diag
   1   -113.9856839 -0.113986E+03  0.244E-02    2.51       0.0  T
   2   -113.9856842 -0.273169E-06  0.140E-02    2.51       1.0  T
   3   -113.9856840  0.168062E-06  0.232E-03    2.51       4.9  T
   4   -113.9856842 -0.214035E-06  0.105E-03    2.51      10.8  T
   5   -113.9856842 -0.414815E-07  0.282E-04    2.51      40.2  T
   6   -113.9856843 -0.163638E-08  0.159E-04    2.51      71.3  T
     SCC iter.                  ...        0 min,  0.758 sec
     gradient                   ...        0 min,  0.117 sec
 * total energy  :  -112.3720135 Eh     change       -0.4403146E-04 Eh
   gradient norm :     0.0011617 Eh/α   predicted    -0.1787900E-04 ( -59.39%)
   displ. norm   :     0.2377051 α      lambda       -0.3215853E-04
   maximum displ.:     0.2049723 α      in ANC's #1, #2, #7, ...

........................................................................
.............................. CYCLE   38 ..............................
........................................................................

 iter      E             dE          RMSdq      gap      omega  full diag
   1   -113.9852988 -0.113985E+03  0.231E-02    2.51       0.0  T
   2   -113.9852990 -0.212109E-06  0.134E-02    2.51       1.0  T
   3   -113.9852989  0.121440E-06  0.189E-03    2.51       6.0  T
   4   -113.9852990 -0.158550E-06  0.865E-04    2.51      13.1  T
   5   -113.9852991 -0.294236E-07  0.239E-04    2.51      47.4  T
     SCC iter.                  ...        0 min,  0.637 sec
     gradient                   ...        0 min,  0.115 sec
 * total energy  :  -112.3720577 Eh     change       -0.4413449E-04 Eh
   gradient norm :     0.0016944 Eh/α   predicted    -0.1648487E-04 ( -62.65%)
   displ. norm   :     0.2497667 α      lambda       -0.3835304E-04
   maximum displ.:     0.2147181 α      in ANC's #1, #2, #5, ...

........................................................................
.............................. CYCLE   39 ..............................
........................................................................

 iter      E             dE          RMSdq      gap      omega  full diag
   1   -113.9853105 -0.113985E+03  0.244E-02    2.51       0.0  T
   2   -113.9853107 -0.188122E-06  0.141E-02    2.51       1.0  T
   3   -113.9853106  0.148889E-06  0.189E-03    2.51       6.0  T
   4   -113.9853108 -0.198742E-06  0.812E-04    2.51      13.9  T
   5   -113.9853108 -0.193565E-07  0.250E-04    2.51      45.2  T
     SCC iter.                  ...        0 min,  0.481 sec
     gradient                   ...        0 min,  0.117 sec
 * total energy  :  -112.3721099 Eh     change       -0.5227201E-04 Eh
   gradient norm :     0.0017434 Eh/α   predicted    -0.1971263E-04 ( -62.29%)
   displ. norm   :     0.3107735 α      lambda       -0.4543124E-04
   maximum displ.:     0.2670583 α      in ANC's #1, #2, #5, ...

........................................................................
.............................. CYCLE   40 ..............................
........................................................................

 iter      E             dE          RMSdq      gap      omega  full diag
   1   -113.9852231 -0.113985E+03  0.308E-02    2.51       0.0  T
   2   -113.9852234 -0.300435E-06  0.178E-02    2.51       1.0  T
   3   -113.9852231  0.266407E-06  0.253E-03    2.51       4.5  T
   4   -113.9852235 -0.353736E-06  0.105E-03    2.51      10.8  T
   5   -113.9852235 -0.289990E-07  0.344E-04    2.51      32.9  T
   6   -113.9852235 -0.519759E-08  0.140E-04    2.51      81.1  T
     SCC iter.                  ...        0 min,  0.651 sec
     gradient                   ...        0 min,  0.113 sec
 * total energy  :  -112.3721691 Eh     change       -0.5912963E-04 Eh
   gradient norm :     0.0016299 Eh/α   predicted    -0.2369232E-04 ( -59.93%)
   displ. norm   :     0.3184988 α      lambda       -0.4085390E-04
   maximum displ.:     0.2759287 α      in ANC's #1, #2, #5, ...

........................................................................
.............................. CYCLE   41 ..............................
........................................................................

 iter      E             dE          RMSdq      gap      omega  full diag
   1   -113.9851470 -0.113985E+03  0.306E-02    2.51       0.0  T
   2   -113.9851473 -0.319257E-06  0.177E-02    2.51       1.0  T
   3   -113.9851471  0.264459E-06  0.266E-03    2.51       4.3  T
   4   -113.9851474 -0.357513E-06  0.111E-03    2.51      10.2  T
   5   -113.9851474 -0.301207E-07  0.356E-04    2.51      31.8  T
   6   -113.9851475 -0.517797E-08  0.156E-04    2.51      72.7  T
     SCC iter.                  ...        0 min,  0.709 sec
     gradient                   ...        0 min,  0.117 sec
 * total energy  :  -112.3722191 Eh     change       -0.5002778E-04 Eh
   gradient norm :     0.0015831 Eh/α   predicted    -0.2135102E-04 ( -57.32%)
   displ. norm   :     0.2669738 α      lambda       -0.3368950E-04
   maximum displ.:     0.2319243 α      in ANC's #1, #2, #5, ...

........................................................................
.............................. CYCLE   42 ..............................
........................................................................

 iter      E             dE          RMSdq      gap      omega  full diag
   1   -113.9856098 -0.113986E+03  0.262E-02    2.51       0.0  T
   2   -113.9856100 -0.259224E-06  0.151E-02    2.51       1.0  T
   3   -113.9856098  0.231580E-06  0.242E-03    2.51       4.7  T
   4   -113.9856101 -0.296614E-06  0.105E-03    2.51      10.7  T
   5   -113.9856101 -0.345521E-07  0.327E-04    2.51      34.6  T
   6   -113.9856101 -0.398826E-08  0.138E-04    2.51      81.8  T
     SCC iter.                  ...        0 min,  0.678 sec
     gradient                   ...        0 min,  0.113 sec
 * total energy  :  -112.3722590 Eh     change       -0.3987537E-04 Eh
   gradient norm :     0.0013034 Eh/α   predicted    -0.1738182E-04 ( -56.41%)
   displ. norm   :     0.2453687 α      lambda       -0.2763331E-04
   maximum displ.:     0.2182322 α      in ANC's #1, #2, #5, ...
 * RMSD in coord.:     0.4146081 α      energy gain  -0.8448605E-03 Eh

generating ANC from exact Hessian ...
Using Lindh-Hessian (1995)
 Shifting diagonal of input Hessian by    9.9239736192425418E-003
 Lowest  eigenvalues of input Hessian
    0.000000    0.000000    0.000000    0.000000    0.000000    0.000000
    0.010000    0.010228    0.010323    0.010406    0.010464    0.010699
    0.010804    0.011318    0.011539    0.011769    0.011928    0.012024
 Highest eigenvalues
    2.017314    2.038605    2.048977    2.114446    2.116264    2.272761


........................................................................
.............................. CYCLE   43 ..............................
........................................................................

 iter      E             dE          RMSdq      gap      omega  full diag
   1   -113.9855752 -0.113986E+03  0.231E-02    2.52       0.0  T
   2   -113.9855754 -0.224694E-06  0.133E-02    2.52       1.0  T
   3   -113.9855753  0.132300E-06  0.205E-03    2.52       5.5  T
   4   -113.9855755 -0.177570E-06  0.940E-04    2.52      12.0  T
   5   -113.9855755 -0.284910E-07  0.297E-04    2.52      38.1  T
     SCC iter.                  ...        0 min,  0.598 sec
     gradient                   ...        0 min,  0.115 sec
 * total energy  :  -112.3722966 Eh     change       -0.3758516E-04 Eh
   gradient norm :     0.0014350 Eh/α   predicted     0.0000000E+00 (-100.00%)
   displ. norm   :     0.0381014 α      lambda       -0.1106155E-04
   maximum displ.:     0.0282302 α      in ANC's #1, #12, #18, ...

........................................................................
.............................. CYCLE   44 ..............................
........................................................................

 iter      E             dE          RMSdq      gap      omega  full diag
   1   -113.9861068 -0.113986E+03  0.610E-03    2.52       0.0  T
   2   -113.9861069 -0.548244E-07  0.343E-03    2.52       3.3  T
   3   -113.9861069  0.214914E-07  0.857E-04    2.52      13.2  T
   4   -113.9861069 -0.278816E-07  0.350E-04    2.52      32.3  T
     SCC iter.                  ...        0 min,  0.321 sec
     gradient                   ...        0 min,  0.111 sec
 * total energy  :  -112.3723102 Eh     change       -0.1366440E-04 Eh
   gradient norm :     0.0006836 Eh/α   predicted    -0.5539839E-05 ( -59.46%)
   displ. norm   :     0.0986190 α      lambda       -0.1994408E-04
   maximum displ.:     0.0681836 α      in ANC's #1, #12, #18, ...

........................................................................
.............................. CYCLE   45 ..............................
........................................................................

 iter      E             dE          RMSdq      gap      omega  full diag
   1   -113.9863763 -0.113986E+03  0.146E-02    2.51       0.0  T
   2   -113.9863765 -0.148759E-06  0.826E-03    2.51       1.4  T
   3   -113.9863763  0.118902E-06  0.179E-03    2.51       6.3  T
   4   -113.9863765 -0.141732E-06  0.701E-04    2.51      16.2  T
   5   -113.9863765 -0.182694E-07  0.270E-04    2.51      42.0  T
     SCC iter.                  ...        0 min,  0.494 sec
     gradient                   ...        0 min,  0.113 sec
 * total energy  :  -112.3723331 Eh     change       -0.2290958E-04 Eh
   gradient norm :     0.0011018 Eh/α   predicted    -0.1001566E-04 ( -56.28%)
   displ. norm   :     0.1163878 α      lambda       -0.1649794E-04
   maximum displ.:     0.0831312 α      in ANC's #1, #12, #4, ...

........................................................................
.............................. CYCLE   46 ..............................
........................................................................

 iter      E             dE          RMSdq      gap      omega  full diag
   1   -113.9861291 -0.113986E+03  0.179E-02    2.51       0.0  T
   2   -113.9861295 -0.366258E-06  0.967E-03    2.51       1.2  T
   3   -113.9861295  0.309309E-07  0.225E-03    2.51       5.0  T
   4   -113.9861295 -0.429069E-07  0.114E-03    2.51      10.0  T
   5   -113.9861296 -0.520049E-07  0.450E-04    2.51      25.1  T
   6   -113.9861296 -0.603490E-08  0.223E-04    2.51      50.8  T
     SCC iter.                  ...        0 min,  0.654 sec
     gradient                   ...        0 min,  0.117 sec
 * total energy  :  -112.3723494 Eh     change       -0.1621685E-04 Eh
   gradient norm :     0.0013599 Eh/α   predicted    -0.8319052E-05 ( -48.70%)
   displ. norm   :     0.0980009 α      lambda       -0.1387114E-04
   maximum displ.:     0.0717255 α      in ANC's #1, #4, #12, ...

........................................................................
.............................. CYCLE   47 ..............................
........................................................................

 iter      E             dE          RMSdq      gap      omega  full diag
   1   -113.9859507 -0.113986E+03  0.144E-02    2.51       0.0  T
   2   -113.9859510 -0.309180E-06  0.796E-03    2.51       1.4  T
   3   -113.9859510  0.836025E-09  0.200E-03    2.51       5.7  T
   4   -113.9859510 -0.980958E-08  0.826E-04    2.51      13.7  T
   5   -113.9859510 -0.258117E-07  0.387E-04    2.51      29.3  T
     SCC iter.                  ...        0 min,  0.582 sec
     gradient                   ...        0 min,  0.115 sec
 * total energy  :  -112.3723625 Eh     change       -0.1317379E-04 Eh
   gradient norm :     0.0011466 Eh/α   predicted    -0.6967808E-05 ( -47.11%)
   displ. norm   :     0.0642463 α      lambda       -0.9708870E-05
   maximum displ.:     0.0494316 α      in ANC's #1, #4, #2, ...

........................................................................
.............................. CYCLE   48 ..............................
........................................................................

 iter      E             dE          RMSdq      gap      omega  full diag
   1   -113.9860765 -0.113986E+03  0.871E-03    2.51       0.0  T
   2   -113.9860766 -0.108752E-06  0.421E-03    2.51       2.7  T
   3   -113.9860766 -0.333785E-09  0.117E-03    2.51       9.6  T
   4   -113.9860766 -0.272618E-08  0.594E-04    2.51      19.1  T
   5   -113.9860766 -0.159195E-07  0.176E-04    2.51      64.4  T
     SCC iter.                  ...        0 min,  0.518 sec
     gradient                   ...        0 min,  0.114 sec
 * total energy  :  -112.3723756 Eh     change       -0.1305360E-04 Eh
   gradient norm :     0.0008482 Eh/α   predicted    -0.4863689E-05 ( -62.74%)
   displ. norm   :     0.1070599 α      lambda       -0.1802172E-04
   maximum displ.:     0.0776557 α      in ANC's #1, #4, #2, ...

........................................................................
.............................. CYCLE   49 ..............................
........................................................................

 iter      E             dE          RMSdq      gap      omega  full diag
   1   -113.9861751 -0.113986E+03  0.142E-02    2.51       0.0  T
   2   -113.9861753 -0.197372E-06  0.748E-03    2.51       1.5  T
   3   -113.9861754 -0.738684E-08  0.179E-03    2.51       6.3  T
   4   -113.9861754 -0.138652E-07  0.686E-04    2.51      16.5  T
   5   -113.9861754 -0.102162E-07  0.300E-04    2.51      37.8  T
     SCC iter.                  ...        0 min,  0.515 sec
     gradient                   ...        0 min,  0.111 sec
 * total energy  :  -112.3723977 Eh     change       -0.2210715E-04 Eh
   gradient norm :     0.0007238 Eh/α   predicted    -0.9058212E-05 ( -59.03%)
   displ. norm   :     0.1387177 α      lambda       -0.1708216E-04
   maximum displ.:     0.1021656 α      in ANC's #1, #4, #2, ...

........................................................................
.............................. CYCLE   50 ..............................
........................................................................

 iter      E             dE          RMSdq      gap      omega  full diag
   1   -113.9860387 -0.113986E+03  0.174E-02    2.51       0.0  T
   2   -113.9860390 -0.285926E-06  0.903E-03    2.51       1.3  T
   3   -113.9860389  0.469258E-07  0.226E-03    2.51       5.0  T
   4   -113.9860389 -0.288218E-07  0.115E-03    2.51       9.8  T
   5   -113.9860390 -0.797080E-07  0.285E-04    2.51      39.7  T
   6   -113.9860390 -0.356668E-08  0.135E-04    2.51      83.8  T
     SCC iter.                  ...        0 min,  0.769 sec
     gradient                   ...        0 min,  0.113 sec
 * total energy  :  -112.3724180 Eh     change       -0.2026433E-04 Eh
   gradient norm :     0.0010719 Eh/α   predicted    -0.8615532E-05 ( -57.48%)
   displ. norm   :     0.1132825 α      lambda       -0.1168889E-04
   maximum displ.:     0.0856249 α      in ANC's #1, #4, #2, ...

........................................................................
.............................. CYCLE   51 ..............................
........................................................................

 iter      E             dE          RMSdq      gap      omega  full diag
   1   -113.9861949 -0.113986E+03  0.140E-02    2.51       0.0  T
   2   -113.9861951 -0.154710E-06  0.736E-03    2.51       1.5  T
   3   -113.9861951  0.103564E-08  0.166E-03    2.51       6.8  T
   4   -113.9861951 -0.206070E-07  0.765E-04    2.51      14.8  T
   5   -113.9861951 -0.151202E-07  0.238E-04    2.51      47.6  T
     SCC iter.                  ...        0 min,  0.645 sec
     gradient                   ...        0 min,  0.114 sec
 * total energy  :  -112.3724334 Eh     change       -0.1547351E-04 Eh
   gradient norm :     0.0011118 Eh/α   predicted    -0.5878780E-05 ( -62.01%)
   displ. norm   :     0.0977520 α      lambda       -0.1101498E-04
   maximum displ.:     0.0748901 α      in ANC's #1, #4, #2, ...

........................................................................
.............................. CYCLE   52 ..............................
........................................................................

 iter      E             dE          RMSdq      gap      omega  full diag
   1   -113.9863229 -0.113986E+03  0.103E-02    2.51       0.0  T
   2   -113.9863230 -0.750172E-07  0.564E-03    2.51       2.0  T
   3   -113.9863229  0.164905E-07  0.120E-03    2.51       9.4  T
   4   -113.9863230 -0.185680E-07  0.639E-04    2.51      17.7  T
   5   -113.9863230 -0.184033E-07  0.159E-04    2.51      71.3  T
     SCC iter.                  ...        0 min,  0.593 sec
     gradient                   ...        0 min,  0.119 sec
 * total energy  :  -112.3724492 Eh     change       -0.1577660E-04 Eh
   gradient norm :     0.0007995 Eh/α   predicted    -0.5532452E-05 ( -64.93%)
   displ. norm   :     0.1126403 α      lambda       -0.1398695E-04
   maximum displ.:     0.0855416 α      in ANC's #1, #4, #10, ...

........................................................................
.............................. CYCLE   53 ..............................
........................................................................

 iter      E             dE          RMSdq      gap      omega  full diag
   1   -113.9862986 -0.113986E+03  0.123E-02    2.51       0.0  T
   2   -113.9862988 -0.114299E-06  0.671E-03    2.51       1.7  T
   3   -113.9862987  0.139937E-07  0.144E-03    2.51       7.8  T
   4   -113.9862988 -0.180296E-07  0.751E-04    2.51      15.1  T
   5   -113.9862988 -0.253239E-07  0.195E-04    2.51      57.9  T
     SCC iter.                  ...        0 min,  0.541 sec
     gradient                   ...        0 min,  0.117 sec
 * total energy  :  -112.3724689 Eh     change       -0.1967232E-04 Eh
   gradient norm :     0.0004501 Eh/α   predicted    -0.7035432E-05 ( -64.24%)
   displ. norm   :     0.1421466 α      lambda       -0.1675354E-04
   maximum displ.:     0.1071644 α      in ANC's #1, #4, #10, ...

........................................................................
.............................. CYCLE   54 ..............................
........................................................................

 iter      E             dE          RMSdq      gap      omega  full diag
   1   -113.9862962 -0.113986E+03  0.157E-02    2.51       0.0  T
   2   -113.9862963 -0.169400E-06  0.857E-03    2.51       1.3  T
   3   -113.9862963  0.502438E-08  0.172E-03    2.51       6.6  T
   4   -113.9862963 -0.691942E-08  0.883E-04    2.51      12.8  T
   5   -113.9862964 -0.394060E-07  0.217E-04    2.51      52.3  T
     SCC iter.                  ...        0 min,  0.577 sec
     gradient                   ...        0 min,  0.113 sec
 * total energy  :  -112.3724921 Eh     change       -0.2320693E-04 Eh
   gradient norm :     0.0006410 Eh/α   predicted    -0.8455317E-05 ( -63.57%)
   displ. norm   :     0.1589302 α      lambda       -0.1713040E-04
   maximum displ.:     0.1194633 α      in ANC's #1, #4, #5, ...

........................................................................
.............................. CYCLE   55 ..............................
........................................................................

 iter      E             dE          RMSdq      gap      omega  full diag
   1   -113.9862636 -0.113986E+03  0.173E-02    2.51       0.0  T
   2   -113.9862637 -0.182855E-06  0.949E-03    2.51       1.2  T
   3   -113.9862637 -0.934256E-08  0.177E-03    2.51       6.4  T
   4   -113.9862637  0.560689E-08  0.863E-04    2.51      13.1  T
   5   -113.9862638 -0.408417E-07  0.254E-04    2.51      44.6  T
     SCC iter.                  ...        0 min,  0.655 sec
     gradient                   ...        0 min,  0.115 sec
 * total energy  :  -112.3725161 Eh     change       -0.2405920E-04 Eh
   gradient norm :     0.0009205 Eh/α   predicted    -0.8662110E-05 ( -64.00%)
   displ. norm   :     0.1605629 α      lambda       -0.1672914E-04
   maximum displ.:     0.1202504 α      in ANC's #1, #4, #5, ...

........................................................................
.............................. CYCLE   56 ..............................
........................................................................

 iter      E             dE          RMSdq      gap      omega  full diag
   1   -113.9862310 -0.113986E+03  0.175E-02    2.51       0.0  T
   2   -113.9862312 -0.193922E-06  0.950E-03    2.51       1.2  T
   3   -113.9862312 -0.127631E-07  0.181E-03    2.51       6.2  T
   4   -113.9862312  0.770585E-08  0.878E-04    2.51      12.9  T
   5   -113.9862312 -0.399620E-07  0.239E-04    2.51      47.3  T
     SCC iter.                  ...        0 min,  0.623 sec
     gradient                   ...        0 min,  0.117 sec
 * total energy  :  -112.3725402 Eh     change       -0.2402498E-04 Eh
   gradient norm :     0.0009640 Eh/α   predicted    -0.8461115E-05 ( -64.78%)
   displ. norm   :     0.1659859 α      lambda       -0.1763076E-04
   maximum displ.:     0.1234732 α      in ANC's #1, #4, #5, ...

........................................................................
.............................. CYCLE   57 ..............................
........................................................................

 iter      E             dE          RMSdq      gap      omega  full diag
   1   -113.9862981 -0.113986E+03  0.177E-02    2.51       0.0  T
   2   -113.9862983 -0.179990E-06  0.970E-03    2.51       1.2  T
   3   -113.9862983 -0.139151E-07  0.178E-03    2.51       6.4  T
   4   -113.9862983 -0.193091E-08  0.828E-04    2.51      13.7  T
   5   -113.9862983 -0.268096E-07  0.266E-04    2.51      42.6  T
     SCC iter.                  ...        0 min,  0.675 sec
     gradient                   ...        0 min,  0.113 sec
 * total energy  :  -112.3725658 Eh     change       -0.2566397E-04 Eh
   gradient norm :     0.0008290 Eh/α   predicted    -0.8923949E-05 ( -65.23%)
   displ. norm   :     0.1863853 α      lambda       -0.2033111E-04
   maximum displ.:     0.1374117 α      in ANC's #1, #4, #5, ...

........................................................................
.............................. CYCLE   58 ..............................
........................................................................

 iter      E             dE          RMSdq      gap      omega  full diag
   1   -113.9862924 -0.113986E+03  0.201E-02    2.51       0.0  T
   2   -113.9862927 -0.240110E-06  0.109E-02    2.51       1.0  T
   3   -113.9862927 -0.192686E-07  0.204E-03    2.51       5.5  T
   4   -113.9862927 -0.717351E-08  0.934E-04    2.51      12.1  T
   5   -113.9862927 -0.287744E-07  0.288E-04    2.51      39.4  T
     SCC iter.                  ...        0 min,  0.556 sec
     gradient                   ...        0 min,  0.117 sec
 * total energy  :  -112.3725955 Eh     change       -0.2966625E-04 Eh
   gradient norm :     0.0005789 Eh/α   predicted    -0.1032713E-04 ( -65.19%)
   displ. norm   :     0.2177300 α      lambda       -0.2396682E-04
   maximum displ.:     0.1593457 α      in ANC's #1, #4, #5, ...

........................................................................
.............................. CYCLE   59 ..............................
........................................................................

 iter      E             dE          RMSdq      gap      omega  full diag
   1   -113.9863517 -0.113986E+03  0.232E-02    2.51       0.0  T
   2   -113.9863520 -0.285661E-06  0.128E-02    2.51       1.0  T
   3   -113.9863520 -0.131281E-07  0.227E-03    2.51       5.0  T
   4   -113.9863520 -0.260301E-07  0.104E-03    2.51      10.9  T
   5   -113.9863520 -0.301442E-07  0.351E-04    2.51      32.3  T
   6   -113.9863520 -0.378364E-08  0.196E-04    2.51      57.8  T
     SCC iter.                  ...        0 min,  0.834 sec
     gradient                   ...        0 min,  0.117 sec
 * total energy  :  -112.3726302 Eh     change       -0.3474143E-04 Eh
   gradient norm :     0.0003812 Eh/α   predicted    -0.1223878E-04 ( -64.77%)
   displ. norm   :     0.2528386 α      lambda       -0.2729579E-04
   maximum displ.:     0.1842271 α      in ANC's #1, #4, #5, ...

........................................................................
.............................. CYCLE   60 ..............................
........................................................................

 iter      E             dE          RMSdq      gap      omega  full diag
   1   -113.9863445 -0.113986E+03  0.274E-02    2.51       0.0  T
   2   -113.9863448 -0.392520E-06  0.151E-02    2.51       1.0  T
   3   -113.9863449 -0.184581E-07  0.265E-03    2.51       4.3  T
   4   -113.9863449 -0.317028E-07  0.122E-03    2.51       9.3  T
   5   -113.9863449 -0.445310E-07  0.381E-04    2.51      29.7  T
   6   -113.9863449 -0.540682E-08  0.201E-04    2.51      56.3  T
     SCC iter.                  ...        0 min,  0.824 sec
     gradient                   ...        0 min,  0.117 sec
[...]
       103        2.0000           -0.4699986             -12.7893 (HOMO)
       104                         -0.3783903             -10.2965 (LUMO)
       105                         -0.3508403              -9.5469
       106                         -0.3422904              -9.3142
       107                         -0.3384505              -9.2097
       108                         -0.3379391              -9.1958
       109                         -0.3288970              -8.9497
       110                         -0.3176748              -8.6444
       111                         -0.3109777              -8.4621
       112                         -0.2773342              -7.5466
       113                         -0.2480590              -6.7500
       114                         -0.2369310              -6.4472
       ...                                ...                  ...
       210                          1.0998348              29.9280
      -------------------------------------------------------------
                  HL-Gap            0.0916082 Eh            2.4928 eV
             Fermi-level           -0.4241945 Eh          -11.5429 eV

     #   Z          covCN         q      C6AA      α(0)
     1   6 C        3.644     0.030    20.409     6.494
     2   8 O        1.706    -0.253    18.197     5.759
     3   6 C        2.861     0.149    24.760     8.156
     4   6 C        2.929    -0.070    29.754     8.946
     5   6 C        3.005     0.018    27.592     8.617
     6   6 C        3.760    -0.114    22.723     6.796
     7   6 C        2.977    -0.001    28.055     8.688
     8  16 S        2.056    -0.021   141.905    20.049
     9  16 S        1.900    -0.089   144.747    20.249
    10  15 P        4.516     0.574   137.198    21.041
    11   7 N        2.680    -0.173    24.753     7.389
    12   6 C        4.036     0.050    19.652     6.297
    13   6 C        3.754    -0.126    22.972     6.834
    14   6 C        3.755    -0.123    22.913     6.825
    15   6 C        3.906     0.045    19.762     6.319
    16   6 C        3.755    -0.123    22.922     6.827
    17   6 C        3.755    -0.126    22.983     6.836
    18   8 O        1.658    -0.276    18.589     5.820
    19   6 C        3.188     0.123    24.860     8.135
    20   6 C        2.919    -0.055    29.367     8.887
    21   6 C        2.924    -0.028    28.697     8.785
    22   6 C        2.915    -0.038    28.934     8.821
    23   6 C        3.024     0.017    27.614     8.620
    24   6 C        3.020    -0.014    28.333     8.731
    25   6 C        3.966     0.025    20.091     6.369
    26   6 C        3.854    -0.060    21.619     6.613
    27   6 C        3.833    -0.066    21.745     6.634
    28   6 C        3.857    -0.062    21.658     6.619
    29   6 C        3.834    -0.068    21.771     6.638
    30   6 C        3.023     0.016    27.633     8.623
    31   6 C        2.916    -0.036    28.903     8.816
    32   6 C        2.924    -0.026    28.659     8.779
    33   6 C        2.918    -0.053    29.323     8.880
    34   6 C        3.218     0.120    24.719     8.086
    35   6 C        3.025    -0.014    28.332     8.731
    36   8 O        1.658    -0.258    18.292     5.774
    37   6 C        2.996     0.018    27.606     8.619
    38   6 C        3.759    -0.115    22.754     6.801
    39   6 C        2.926    -0.082    30.045     8.989
    40   1 H        0.924     0.053     2.280     2.362
    41   1 H        0.925     0.076     2.019     2.222
    42   1 H        0.924     0.044     2.397     2.421
    43   1 H        0.926     0.062     2.174     2.306
    44   1 H        0.925     0.053     2.282     2.362
    45   1 H        0.925     0.065     2.143     2.289
    46   1 H        0.925     0.057     2.236     2.338
    47   1 H        0.924     0.045     2.380     2.412
    48   1 H        0.925     0.048     2.340     2.392
    49   1 H        0.925     0.069     2.093     2.263
    50   1 H        0.925     0.059     2.209     2.324
    51   1 H        0.925     0.066     2.128     2.281
    52   1 H        0.925     0.061     2.191     2.315
    53   1 H        0.925     0.056     2.245     2.343
    54   1 H        0.924     0.068     2.105     2.269
    55   1 H        0.925     0.051     2.304     2.374
    56   1 H        0.925     0.067     2.115     2.274
    57   1 H        0.925     0.055     2.254     2.348
    58   1 H        0.925     0.055     2.262     2.352
    59   1 H        0.925     0.068     2.107     2.270
    60   1 H        0.925     0.051     2.301     2.372
    61   1 H        0.926     0.061     2.184     2.311
    62   1 H        0.926     0.064     2.148     2.292
    63   1 H        0.926     0.064     2.150     2.293
    64   1 H        0.925     0.054     2.276     2.359
    65   1 H        0.924     0.042     2.425     2.435
    66   1 H        0.924     0.064     2.147     2.292
    67   1 H        0.925     0.062     2.174     2.306
    68   1 H        0.925     0.054     2.275     2.359
    69   1 H        0.924     0.045     2.377     2.411
    70   1 H        0.925     0.068     2.108     2.270
    71   1 H        0.924     0.064     2.155     2.295
    72   1 H        0.926     0.057     2.229     2.335
    73   1 H        0.926     0.064     2.147     2.292
    74   1 H        0.926     0.059     2.212     2.326
    75   1 H        0.924     0.056     2.241     2.341
    76   1 H        0.925     0.063     2.167     2.302
    77   1 H        0.925     0.060     2.199     2.319
    78   1 H        0.926     0.052     2.294     2.368

 Mol. C6AA /au·bohr⁶  :      73558.850034
 Mol. C8AA /au·bohr⁸  :    1949679.430234
 Mol. α(0) /au        :        425.686492


Wiberg/Mayer (AO) data.
largest (>0.10) Wiberg bond orders for each atom

 ---------------------------------------------------------------------------
     #   Z sym  total        # sym  WBO       # sym  WBO       # sym  WBO
 ---------------------------------------------------------------------------
     1   6 C    3.936 --    41 H    0.978    40 H    0.976     2 O    0.975
                            42 H    0.975
     2   8 O    2.255 --     3 C    1.093     1 C    0.975
     3   6 C    3.930 --    39 C    1.363     4 C    1.327     2 O    1.093
     4   6 C    3.983 --     5 C    1.454     3 C    1.327    43 H    0.962
     5   6 C    3.987 --     4 C    1.454     7 C    1.338     6 C    1.031
     6   6 C    3.992 --     5 C    1.031    44 H    0.982    46 H    0.966
                            45 H    0.964
     7   6 C    3.939 --    37 C    1.373     5 C    1.338     8 S    1.000
     8  16 S    2.359 --     9 S    1.150     7 C    1.000
     9  16 S    2.425 --     8 S    1.150    10 P    0.985
    10  15 P    5.120 --    36 O    1.290    18 O    1.275    11 N    1.233
                             9 S    0.985
    11   7 N    3.377 --    10 P    1.233    12 C    0.940    15 C    0.938
    12   6 C    3.957 --    13 C    1.006    14 C    1.003    47 H    0.946
                            11 N    0.940
    13   6 C    3.990 --    12 C    1.006    50 H    0.981    49 H    0.979
                            48 H    0.978
    14   6 C    3.988 --    12 C    1.003    53 H    0.980    51 H    0.980
                            52 H    0.979
    15   6 C    3.954 --    16 C    1.007    17 C    1.007    54 H    0.955
                            11 N    0.938
    16   6 C    3.991 --    15 C    1.007    55 H    0.984    56 H    0.980
                            57 H    0.979
    17   6 C    3.990 --    15 C    1.007    59 H    0.980    60 H    0.979
                            58 H    0.976
    18   8 O    2.381 --    10 P    1.275    19 C    0.872
    19   6 C    3.879 --    24 C    1.405    20 C    1.384    18 O    0.872
    20   6 C    3.986 --    21 C    1.451    19 C    1.384    61 H    0.962
                            23 C    0.106
    21   6 C    3.985 --    20 C    1.451    22 C    1.420    62 H    0.968
                            24 C    0.105
    22   6 C    3.987 --    23 C    1.440    21 C    1.420    63 H    0.966
    23   6 C    3.984 --    22 C    1.440    24 C    1.345    27 C    1.017
                            20 C    0.106
    24   6 C    3.982 --    19 C    1.405    23 C    1.345    25 C    0.990
                            21 C    0.105
    25   6 C    3.989 --    35 C    0.992    24 C    0.990    26 C    0.957
                            28 C    0.955
    26   6 C    3.993 --    27 C    1.002    65 H    0.979    64 H    0.977
                            25 C    0.957
    27   6 C    3.994 --    23 C    1.017    26 C    1.002    67 H    0.965
                            66 H    0.955
    28   6 C    3.992 --    29 C    1.002    68 H    0.977    69 H    0.976
                            25 C    0.955
    29   6 C    3.993 --    30 C    1.018    28 C    1.002    70 H    0.962
                            71 H    0.954
    30   6 C    3.984 --    31 C    1.438    35 C    1.345    29 C    1.018
                            33 C    0.107
    31   6 C    3.989 --    30 C    1.438    32 C    1.420    72 H    0.965
    32   6 C    3.985 --    33 C    1.451    31 C    1.420    73 H    0.968
                            35 C    0.104
    33   6 C    3.986 --    32 C    1.451    34 C    1.381    74 H    0.964
                            30 C    0.107
    34   6 C    3.880 --    35 C    1.406    33 C    1.381    36 O    0.881
    35   6 C    3.983 --    34 C    1.406    30 C    1.345    25 C    0.992
                            32 C    0.104
    36   8 O    2.402 --    10 P    1.290    34 C    0.881
    37   6 C    3.987 --    39 C    1.413     7 C    1.373    38 C    1.034
    38   6 C    3.993 --    37 C    1.034    77 H    0.978    76 H    0.972
                            75 H    0.958
    39   6 C    3.983 --    37 C    1.413     3 C    1.363    78 H    0.961
    40   1 H    0.997 --     1 C    0.976
    41   1 H    0.994 --     1 C    0.978
    42   1 H    0.997 --     1 C    0.975
    43   1 H    0.995 --     4 C    0.962
    44   1 H    0.997 --     6 C    0.982
    45   1 H    0.995 --     6 C    0.964
    46   1 H    0.996 --     6 C    0.966
    47   1 H    0.998 --    12 C    0.946
    48   1 H    0.998 --    13 C    0.978
    49   1 H    0.995 --    13 C    0.979
    50   1 H    0.996 --    13 C    0.981
    51   1 H    0.995 --    14 C    0.980
    52   1 H    0.996 --    14 C    0.979
    53   1 H    0.997 --    14 C    0.980
    54   1 H    0.995 --    15 C    0.955
    55   1 H    0.997 --    16 C    0.984
    56   1 H    0.994 --    16 C    0.980
    57   1 H    0.997 --    16 C    0.979
    58   1 H    0.997 --    17 C    0.976
    59   1 H    0.995 --    17 C    0.980
    60   1 H    0.997 --    17 C    0.979
    61   1 H    0.996 --    20 C    0.962
    62   1 H    0.995 --    21 C    0.968
    63   1 H    0.995 --    22 C    0.966
    64   1 H    0.996 --    26 C    0.977
    65   1 H    0.998 --    26 C    0.979
    66   1 H    0.996 --    27 C    0.955
    67   1 H    0.995 --    27 C    0.965
    68   1 H    0.996 --    28 C    0.977
    69   1 H    0.998 --    28 C    0.976
    70   1 H    0.994 --    29 C    0.962
    71   1 H    0.996 --    29 C    0.954
    72   1 H    0.996 --    31 C    0.965
    73   1 H    0.995 --    32 C    0.968
    74   1 H    0.996 --    33 C    0.964
    75   1 H    0.997 --    38 C    0.958
    76   1 H    0.996 --    38 C    0.972
    77   1 H    0.996 --    38 C    0.978
    78   1 H    0.997 --    39 C    0.961
 ---------------------------------------------------------------------------

Topologies differ in total number of bonds
Writing topology from bond orders to xtbtopo.mol

molecular dipole:
                 x           y           z       tot (Debye)
 q only:       -0.777      -0.719       0.339
   full:       -0.793      -0.631       0.190       2.622
molecular quadrupole (traceless):
                xx          xy          yy          xz          yz          zz
 q only:      -26.192       7.791      23.410     -10.695     -18.882       2.782
  q+dip:      -29.539       8.809      24.414     -10.323     -21.428       5.124
   full:      -25.025       9.665      22.388     -10.568     -21.330       2.637

           -------------------------------------------------
          |                Geometry Summary                 |
           -------------------------------------------------

      molecular mass/u    :      580.7614928
   center of mass at/Å    :        0.2003596       0.0082196      -0.1535255
  moments of inertia/u·Å² :        0.3681352E+04   0.5870066E+04   0.7088849E+04
rotational constants/cm⁻¹ :        0.4579196E-02   0.2871796E-02   0.2378049E-02

 * 73 selected distances

     #   Z          #   Z                                           value/Å
     1   6 C        2   8 O                                       1.4112739
     2   8 O        3   6 C                                       1.3506218
     3   6 C        4   6 C                                       1.3972994
     4   6 C        5   6 C                                       1.3791369
     5   6 C        7   6 C                                       1.4003988
     8  16 S        9  16 S                                       2.0509150
     9  16 S       10  15 P                                       2.1101742 (max)
    10  15 P       11   7 N                                       1.6375440
    11   7 N       12   6 C                                       1.4754706
    12   6 C       13   6 C                                       1.5250663
    12   6 C       14   6 C                                       1.5269813
    11   7 N       15   6 C                                       1.4714234
    15   6 C       16   6 C                                       1.5245737
    15   6 C       17   6 C                                       1.5246768
    10  15 P       18   8 O                                       1.5820730
    19   6 C       20   6 C                                       1.3879849
    20   6 C       21   6 C                                       1.3830483
    21   6 C       22   6 C                                       1.3879145
    22   6 C       23   6 C                                       1.3791881
    19   6 C       24   6 C                                       1.3792522
    23   6 C       24   6 C                                       1.3999122
    26   6 C       27   6 C                                       1.5343449
    28   6 C       29   6 C                                       1.5344361
    30   6 C       31   6 C                                       1.3789194
    31   6 C       32   6 C                                       1.3881543
    32   6 C       33   6 C                                       1.3832660
    33   6 C       34   6 C                                       1.3885541
    30   6 C       35   6 C                                       1.3980576
    34   6 C       35   6 C                                       1.3772469
    10  15 P       36   8 O                                       1.5748121
    34   6 C       36   8 O                                       1.4178684
     7   6 C       37   6 C                                       1.3945353
     3   6 C       39   6 C                                       1.3899133
    37   6 C       39   6 C                                       1.3874607
     1   6 C       40   1 H                                       1.0930664
     1   6 C       41   1 H                                       1.0882676
     1   6 C       42   1 H                                       1.0940616
     4   6 C       43   1 H                                       1.0787050
     6   6 C       44   1 H                                       1.0864898
     6   6 C       45   1 H                                       1.0895901
     6   6 C       46   1 H                                       1.0867143
    12   6 C       47   1 H                                       1.0986350
    13   6 C       48   1 H                                       1.0878979
    13   6 C       49   1 H                                       1.0866308
    13   6 C       50   1 H                                       1.0866419
    14   6 C       51   1 H                                       1.0865094
    14   6 C       52   1 H                                       1.0864243
    14   6 C       53   1 H                                       1.0865379
    15   6 C       54   1 H                                       1.0919025
    16   6 C       55   1 H                                       1.0873184
    16   6 C       56   1 H                                       1.0865574
    16   6 C       57   1 H                                       1.0855707
    17   6 C       58   1 H                                       1.0860735
    17   6 C       59   1 H                                       1.0870532
    17   6 C       60   1 H                                       1.0878449
    20   6 C       61   1 H                                       1.0777120 (min)
    21   6 C       62   1 H                                       1.0784027
    22   6 C       63   1 H                                       1.0785837
    26   6 C       64   1 H                                       1.0868182
    26   6 C       65   1 H                                       1.0917431
    27   6 C       66   1 H                                       1.0919000
    27   6 C       67   1 H                                       1.0893692
    28   6 C       68   1 H                                       1.0867811
    28   6 C       69   1 H                                       1.0909793
    29   6 C       70   1 H                                       1.0887165
    29   6 C       71   1 H                                       1.0922398
    31   6 C       72   1 H                                       1.0782550
    32   6 C       73   1 H                                       1.0783585
    33   6 C       74   1 H                                       1.0792901
    38   6 C       75   1 H                                       1.0902911
    38   6 C       76   1 H                                       1.0882306
    38   6 C       77   1 H                                       1.0864006
    39   6 C       78   1 H                                       1.0778587

 * 8 distinct bonds (by element types)

   Z      Z             #   av. dist./Å        max./Å        min./Å
   1 H    6 C          39     1.0866775     1.0986350     1.0777120
   6 C    6 C          24     1.4229301     1.5344361     1.3772469
   6 C    7 N           2     1.4734470     1.4754706     1.4714234
   6 C    8 O           3     1.3932547     1.4178684     1.3506218
   7 N   15 P           1     1.6375440     1.6375440     1.6375440
   8 O   15 P           2     1.5784426     1.5820730     1.5748121
  15 P   16 S           1     2.1101742     2.1101742     2.1101742
  16 S   16 S           1     2.0509150     2.0509150     2.0509150


optimized geometry written to: xtbopt.xyz


           -------------------------------------------------
          | TOTAL ENERGY             -112.373871629539 Eh   |
          | GRADIENT NORM               0.000048881209 Eh/α |
          | HOMO-LUMO GAP               2.492786292814 eV   |
           -------------------------------------------------

------------------------------------------------------------------------
 * finished run on 2024/12/16 at 21:06:14.097     
------------------------------------------------------------------------
 total:
 * wall-time:     0 d,  0 h,  3 min, 43.108 sec
 *  cpu-time:     0 d,  0 h, 29 min, 23.220 sec
 * ratio c/w:     7.903 speedup
 SCF:
 * wall-time:     0 d,  0 h,  0 min,  2.061 sec
 *  cpu-time:     0 d,  0 h,  0 min, 16.404 sec
 * ratio c/w:     7.960 speedup
 ANC optimizer:
 * wall-time:     0 d,  0 h,  3 min, 40.882 sec
 *  cpu-time:     0 d,  0 h, 29 min,  5.553 sec
 * ratio c/w:     7.903 speedup

