78
 energy: -112.343975075662 gnorm: 0.113834745148 xtb: 6.7.1 (edcfbbe)
C            2.97962400000000        5.18154000000000       -1.73235900000000
O            3.51817600000000        4.11894400000000       -0.95738000000000
C            3.20145200000000        2.84775400000000       -1.34788400000000
C            3.61364300000000        1.84527100000000       -0.47319900000000
C            3.35206000000000        0.48858700000000       -0.73456600000000
C            3.88221700000000       -0.52705000000000        0.24524700000000
C            2.64271100000000        0.12776800000000       -1.90738900000000
S            2.27941400000000       -1.61712400000000       -2.18499900000000
S            0.23668300000000       -1.68960000000000       -2.39425700000000
P           -0.46367300000000       -1.52770800000000       -0.41715800000000
N           -0.58668400000000       -3.00365000000000        0.32566200000000
C            0.60462200000000       -3.85593300000000        0.47346300000000
C            0.71314700000000       -4.93438900000000       -0.60804600000000
C            0.72281400000000       -4.50669700000000        1.86097700000000
C           -1.87159100000000       -3.70377800000000        0.49933200000000
C           -2.68369600000000       -3.06444900000000        1.62977400000000
C           -2.68563600000000       -3.79551300000000       -0.79530300000000
O            0.47422300000000       -0.53919300000000        0.47004100000000
C            0.10737600000000       -0.19844600000000        1.73488000000000
C            0.66021600000000       -0.90503200000000        2.80258700000000
C            0.23311800000000       -0.66964000000000        4.11506400000000
C           -0.75789800000000        0.27404700000000        4.37177900000000
C           -1.26753000000000        0.99773900000000        3.30370400000000
C           -0.80108700000000        0.81099000000000        1.98863000000000
C           -1.41352500000000        1.84400700000000        1.08427100000000
C           -2.70723900000000        2.16681800000000        1.88401300000000
C           -2.32345500000000        2.05675600000000        3.36463300000000
C           -0.52640800000000        3.10713000000000        0.93499200000000
C           -1.11602400000000        3.89041900000000       -0.25006100000000
C           -1.63595700000000        2.77155700000000       -1.09880600000000
C           -2.01967900000000        2.83224600000000       -2.42909600000000
C           -2.46007000000000        1.65947500000000       -3.04696900000000
C           -2.46897700000000        0.44863400000000       -2.34162500000000
C           -2.05348700000000        0.40611800000000       -1.00976000000000
C           -1.71206700000000        1.57518500000000       -0.36286800000000
O           -1.92461600000000       -0.80122100000000       -0.39162300000000
C            2.28972100000000        1.13858500000000       -2.83413300000000
C            1.62072200000000        0.86300100000000       -4.15764500000000
C            2.54888400000000        2.48977400000000       -2.52286600000000
H            3.39634400000000        5.18251200000000       -2.74300900000000
H            3.26713000000000        6.12211600000000       -1.24932000000000
H            1.88719300000000        5.13834400000000       -1.75464700000000
H            4.14711000000000        2.13210200000000        0.43092600000000
H            4.33379500000000       -0.04960000000000        1.12327400000000
H            4.65787100000000       -1.13815600000000       -0.23132300000000
H            3.08872200000000       -1.17873300000000        0.61546300000000
H            1.48439300000000       -3.20826900000000        0.37921100000000
H            0.64239300000000       -4.51286900000000       -1.61373400000000
H            1.67755700000000       -5.44943500000000       -0.53526300000000
H           -0.07090200000000       -5.69271400000000       -0.51095700000000
H            1.70990200000000       -4.96994800000000        1.96575800000000
H           -0.02116700000000       -5.29323800000000        2.02051300000000
H            0.61364900000000       -3.77673600000000        2.66642500000000
H           -1.70322700000000       -4.74113900000000        0.80812800000000
H           -2.09852200000000       -3.01747000000000        2.55584100000000
H           -3.57729000000000       -3.66363600000000        1.83776900000000
H           -3.01719900000000       -2.05189800000000        1.39268600000000
H           -3.12192500000000       -2.83723500000000       -1.09004400000000
H           -3.51398900000000       -4.50272000000000       -0.66581600000000
H           -2.07418600000000       -4.16012200000000       -1.62397900000000
H            1.42132300000000       -1.65392900000000        2.61164900000000
H            0.66948900000000       -1.23642000000000        4.93575900000000
H           -1.11244100000000        0.44162500000000        5.38394800000000
H           -3.13898500000000        3.14577800000000        1.65484800000000
H           -3.48343600000000        1.42240500000000        1.65907800000000
H           -1.90496900000000        2.99143300000000        3.74336700000000
H           -3.17971800000000        1.75725800000000        3.97437600000000
H           -0.47668100000000        3.72419100000000        1.83991600000000
H            0.50617200000000        2.81326500000000        0.69383500000000
H           -0.34457000000000        4.47559100000000       -0.75616100000000
H           -1.93265900000000        4.54411200000000        0.06754000000000
H           -1.99096400000000        3.76696000000000       -2.98339300000000
H           -2.77627800000000        1.67840700000000       -4.08714700000000
H           -2.77089200000000       -0.46727800000000       -2.84617700000000
H            0.53719800000000        0.83285100000000       -4.03344600000000
H            1.96945500000000       -0.07130000000000       -4.60575900000000
H            1.85576800000000        1.65061400000000       -4.88432900000000
H            2.24300800000000        3.25035800000000       -3.23686100000000
78
 energy: -112.360544086811 gnorm: 0.056658811327 xtb: 6.7.1 (edcfbbe)
C            2.97934603434338        5.18035591587445       -1.73486525880498
O            3.49518370088585        4.11220104042211       -0.96270064484154
C            3.19601229225666        2.84323235307310       -1.34646877792708
C            3.60855383158187        1.83876443039259       -0.47147052129500
C            3.35130107717822        0.50084597796766       -0.72861788685273
C            3.87149057246378       -0.52755253269704        0.23436803188915
C            2.65601867836307        0.16222295043502       -1.90266357443431
S            2.31411101333974       -1.57289908064825       -2.19463259246271
S            0.26469411363102       -1.58511423844231       -2.35693603299338
P           -0.48278614621928       -1.55636309753361       -0.39025630979357
N           -0.60741418288938       -3.02087654029309        0.35705419088743
C            0.60683064057495       -3.85111582563855        0.47465538342548
C            0.70653198068278       -4.92448733351964       -0.61104437137837
C            0.71520928901226       -4.49806801859599        1.85977381623443
C           -1.89749324529721       -3.70676959294409        0.50811204467344
C           -2.69605059091208       -3.06228188000253        1.63679736918218
C           -2.68998639317029       -3.79157684381261       -0.79604927767377
O            0.48025969222414       -0.56279057627696        0.44562645567453
C            0.11299155070623       -0.20372695850147        1.73483420073042
C            0.65446521931525       -0.91423377833827        2.80350962343015
C            0.24321424863903       -0.66719402148745        4.10561243555840
C           -0.74363431254345        0.27371082089858        4.36078919747956
C           -1.24883530528668        1.00244437077331        3.30209281122970
C           -0.79844258312611        0.80852590964636        1.98861775521679
C           -1.41374553108035        1.84716552355612        1.08503618714917
C           -2.71307055196163        2.17759464274426        1.86952328411374
C           -2.31732313476854        2.05010955219539        3.34628451346739
C           -0.52138867522747        3.10827818821891        0.95238990542946
C           -1.11413204188381        3.87180422868694       -0.24251933986353
C           -1.65036886110502        2.76431283965867       -1.09698943243692
C           -2.02652864366631        2.81649951375418       -2.42409866724730
C           -2.46162856284462        1.64855701852484       -3.03889015653640
C           -2.44636022013490        0.44335249396548       -2.34918874587309
C           -2.04130402585533        0.39493443688084       -1.01586647996671
C           -1.70667876277262        1.57018401813072       -0.36603175632143
O           -1.92937645726014       -0.83614523402363       -0.37966125698897
C            2.29236329521720        1.14975560108154       -2.82836869888051
C            1.62537055618368        0.85459101817347       -4.14253770523601
C            2.54552927277367        2.48517324931839       -2.52078318257767
H            3.39530631099458        5.17975695440735       -2.74498529450860
H            3.27839855132742        6.10337354514757       -1.23431262797758
H            1.88740697157367        5.13790621052692       -1.77266252129770
H            4.14540553780236        2.12356397711564        0.42173878100672
H            4.32074817506528       -0.04510735277711        1.10273737600108
H            4.63885436994735       -1.13991426890405       -0.24150957820557
H            3.07875989733680       -1.18478106485822        0.58927651631517
H            1.46850733354434       -3.17831157740079        0.36294208938384
H            0.63612597538921       -4.49814611709980       -1.61065685646758
H            1.66812251752172       -5.43064696335882       -0.53183212817133
H           -0.07193203617982       -5.67906821437138       -0.50450752949821
H            1.70030213123348       -4.95411627876936        1.95507116392566
H           -0.02310145689234       -5.28399935819184        2.00882938109342
H            0.59942524985380       -3.76733795007707        2.65757411641203
H           -1.67671679278911       -4.73338029125088        0.81052762281271
H           -2.09882888720514       -3.01651899831898        2.54815570335878
H           -3.58317817105147       -3.66077043721083        1.83858498972103
H           -3.01285155321396       -2.05285992808761        1.38281118090642
H           -3.11385224809170       -2.83007415718979       -1.07948523565930
H           -3.51319213817788       -4.49435192390473       -0.66739812412511
H           -2.06603381051818       -4.15377890185476       -1.61292457367550
H            1.41071735096319       -1.66014429706425        2.60979171059685
H            0.67480664307799       -1.23274122445598        4.91996947000963
H           -1.10799970086220        0.43311080485451        5.36582810773565
H           -3.12872886061025        3.15548847533905        1.62870102553100
H           -3.47424281239112        1.42596112633997        1.63792914624764
H           -1.91059265459098        2.98480875916884        3.73559483060365
H           -3.16154975751612        1.75765339747841        3.97111339155471
H           -0.48391557031433        3.71063185903764        1.86023263543470
H            0.50168162739046        2.80113804698572        0.70922829047679
H           -0.36018912749857        4.46767438052546       -0.75716312364698
H           -1.92237291765855        4.53672146020457        0.06732727578986
H           -1.98384089371725        3.74467486598180       -2.97774569828563
H           -2.77908742248965        1.66789619732733       -4.07196483179295
H           -2.74929432339523       -0.46795000889607       -2.84657117673984
H            0.54194939303942        0.81775756588133       -4.02545885874899
H            1.96574007372149       -0.08705167554475       -4.57260778754487
H            1.85392921191852        1.64317029620900       -4.86117674563146
H            2.24238098209525        3.23634152543867       -3.23543664832557
78
 energy: -112.365804757209 gnorm: 0.025986891006 xtb: 6.7.1 (edcfbbe)
C            2.97894894094105        5.18181588559446       -1.73863427185295
O            3.46928637920644        4.11318921364485       -0.95921368715309
C            3.18964347751360        2.84774109192957       -1.33868894526721
C            3.60932199712369        1.84249382319572       -0.46438942484219
C            3.36101727504405        0.51504157373852       -0.72377595789711
C            3.86261774038325       -0.52900019950208        0.22485303512296
C            2.67508832893274        0.19116126850647       -1.89887021171901
S            2.28138175978590       -1.52378107197952       -2.17683638354322
S            0.23750976662654       -1.53612395685434       -2.34428096038812
P           -0.48835474565563       -1.56817642531136       -0.36970478720894
N           -0.62494789837481       -3.02032422018331        0.38333143144907
C            0.60371057419555       -3.83661761688958        0.47537291825671
C            0.70001506893376       -4.90286962681107       -0.61516864933016
C            0.71662017625976       -4.48379056320372        1.85571976294873
C           -1.91713973956628       -3.70632355413009        0.51677193598606
C           -2.71489699251947       -3.06131945802039        1.64083035536063
C           -2.69600324066606       -3.78646205825313       -0.79177408245997
O            0.49382243691229       -0.57926308678584        0.42346304083614
C            0.12188921925973       -0.21031358018480        1.73475410342311
C            0.65632198618147       -0.92519727435344        2.80053105652632
C            0.25176356369669       -0.67186486414586        4.09611749053468
C           -0.73318971991966        0.26953225404213        4.34977432314573
C           -1.23643327146883        1.00058051275557        3.29604189540322
C           -0.79147409438666        0.80026419842653        1.98483880400974
C           -1.40676349818807        1.83870370661596        1.08173154375535
C           -2.70844415526489        2.17319329866589        1.85653397303645
C           -2.31070597572972        2.04417452397583        3.33157633441818
C           -0.51584383028520        3.10029775342140        0.95786584152384
C           -1.11113404406416        3.85657650690519       -0.23754248547401
C           -1.64862617107024        2.75095779260617       -1.09534666744910
C           -2.02204089095798        2.79688263216132       -2.42056586625053
C           -2.45217265656437        1.62925218771229       -3.03329925569942
C           -2.42290411639880        0.42748272929912       -2.35237280173073
C           -2.02439661939578        0.38111258965765       -1.01972376855069
C           -1.69453587842274        1.55679611268669       -0.36882990408216
O           -1.92165576491648       -0.87044511447978       -0.36920374566089
C            2.29721366912074        1.16175800875417       -2.82212638518892
C            1.62962787964800        0.84446487072177       -4.12513976076805
C            2.54268190067029        2.48976981225557       -2.51520966627060
H            3.40340376131797        5.17859559665960       -2.74548290679495
H            3.28663020750670        6.08934122685389       -1.22275595411416
H            1.88651779798965        5.14766406780630       -1.79994267594547
H            4.14434765206971        2.13098669412049        0.42390505305800
H            4.30768384689457       -0.05288915483468        1.09311408634755
H            4.62018417814585       -1.14496903452637       -0.25601223053144
H            3.06122722515223       -1.18590242773901        0.55749256634610
H            1.44387118286595       -3.13824764357362        0.34819790461850
H            0.62761483986133       -4.46738766418252       -1.60827364279860
H            1.66027420835358       -5.40421079071869       -0.53447661520034
H           -0.07681452564444       -5.65351616341714       -0.50289441625511
H            1.70066918247175       -4.93379359830709        1.95255599152161
H           -0.01937805314406       -5.26994077456230        1.99132533504819
H            0.58599717696320       -3.75289958822190        2.64737453227437
H           -1.66407873223601       -4.72604129578218        0.81641174256859
H           -2.11107566342849       -3.01444647259744        2.54310047412910
H           -3.60127755864674       -3.65345139253246        1.84263750541911
H           -3.01775432655365       -2.05390673587247        1.37316886806691
H           -3.10694293045667       -2.82062187026876       -1.06696379103107
H           -3.51928124363281       -4.48464601991264       -0.67176538400381
H           -2.05885912242622       -4.14498464784226       -1.59751956090084
H            1.40572447627309       -1.67288953345356        2.60060009850290
H            0.68406007999408       -1.23298462539572        4.90767996247817
H           -1.09810938328196        0.43093739569243        5.35130475687607
H           -3.10422399045055        3.15345561218395        1.60728212726795
H           -3.46641896470972        1.42509748910371        1.61771840974787
H           -1.91248966667235        2.98217125418278        3.72450625478589
H           -3.14699396387702        1.75580890532270        3.96723166011277
H           -0.49766367583146        3.69110027774646        1.86877395237211
H            0.50448363376849        2.79102515468526        0.72228540599380
H           -0.37026646377959        4.46096993279253       -0.75986914540900
H           -1.91615123770662        4.52725059857594        0.06982119515059
H           -1.98359381597603        3.72386930643794       -2.97011347961703
H           -2.77825433156063        1.64914438491556       -4.06004176642858
H           -2.71116580612942       -0.48623673997823       -2.84627176481029
H            0.54630167550760        0.79862257222027       -4.00690903889007
H            1.96579364052718       -0.10699146924384       -4.53135458192262
H            1.85067239234425        1.62704288907698       -4.84630696039328
H            2.23851346151757        3.23650360840206       -3.22894214458909
78
 energy: -112.367433488582 gnorm: 0.013439097696 xtb: 6.7.1 (edcfbbe)
C            2.98009088542049        5.18767620025037       -1.74075368680349
O            3.44655289619722        4.11899948156099       -0.94834001514366
C            3.17947425976076        2.85496763301690       -1.33020278256986
C            3.60402372051145        1.84931794414371       -0.45644841353436
C            3.35432626563066        0.52145508544863       -0.71685368146069
C            3.85358014151622       -0.53255161880582        0.21938360118251
C            2.66255289250197        0.19861725082548       -1.88894800061587
S            2.30813449500265       -1.51754388311534       -2.19542402297553
S            0.25764493614934       -1.49449077515878       -2.32115309730898
P           -0.49704266449463       -1.56327444780094       -0.35790296354412
N           -0.64004988515168       -3.00873863611557        0.39920579871049
C            0.59589553043619       -3.81605049988546        0.47723870923478
C            0.69288904191124       -4.87269534729249       -0.62089676312779
C            0.72033782470436       -4.46726558899915        1.85302449469850
C           -1.92973401797324       -3.70462359869437        0.52532886306927
C           -2.73454099194217       -3.05972116332926        1.64467328266791
C           -2.69985888791791       -3.78112876417355       -0.78739021409195
O            0.49941849972875       -0.58671687745073        0.41252132728393
C            0.12765268458733       -0.21822760242087        1.73466529837258
C            0.66321998556083       -0.93712142065465        2.79512141906155
C            0.26162133200564       -0.67992639897059        4.09111136147666
C           -0.72168387024751        0.26484875944988        4.34491376881689
C           -1.22791927218307        0.99483911416500        3.29170628552488
C           -0.78349045223683        0.79115644341656        1.98098891213881
C           -1.39775109184600        1.82666211146543        1.07794393606927
C           -2.69979350449384        2.16390860810869        1.84842557870358
C           -2.30419565100697        2.03713647433027        3.32354345191109
C           -0.51019726818168        3.09005923243605        0.95747251914590
C           -1.10546971466014        3.84417018631485       -0.23819966751501
C           -1.64046505253195        2.73735567909784       -1.09660702735218
C           -2.01737442244241        2.77980470879690       -2.42119570687387
C           -2.43999438597014        1.60845511518147       -3.03415598581789
C           -2.40747235423322        0.40737827878267       -2.35238001844260
C           -2.02041418326983        0.37180664634194       -1.01763894752802
C           -1.68655735706252        1.54386773136101       -0.36951552257344
O           -1.92330607312720       -0.88564267947980       -0.35721962575483
C            2.28674887911214        1.16798955622048       -2.81320113541148
C            1.62570604504609        0.83590664118848       -4.11303476032959
C            2.53456544135519        2.49755503087327       -2.50876280895794
H            3.42231534225212        5.17851905780856       -2.74081771534798
H            3.28856804326175        6.09001203881748       -1.21870133857949
H            1.88757563085042        5.16546324032725       -1.82658855601399
H            4.14091783482365        2.14222600741783        0.43016330692743
H            4.30008910326355       -0.06996619815200        1.09350917379003
H            4.60419126083215       -1.14939918499879       -0.27185965575853
H            3.04508952580665       -1.18765160627179        0.53816000468214
H            1.42277808605017       -3.10361536985497        0.34336231131311
H            0.61759161591708       -4.42813234973818       -1.60976993865591
H            1.65433625229353       -5.37216585461887       -0.54478677869563
H           -0.08350121682305       -5.62388688998939       -0.51071024182799
H            1.70844854642459       -4.90701024522345        1.95233337108255
H           -0.00943966555302       -5.26105334560098        1.97973991942475
H            0.57529418048159       -3.74004527136888        2.64558319757605
H           -1.67110770821786       -4.72225400714739        0.82521359190561
H           -2.13429777892819       -3.01054679877749        2.54874605292471
H           -3.62379139487137       -3.64786591211909        1.84495848569254
H           -3.03362431877226       -2.05314273477275        1.37066793710647
H           -3.10498719701323       -2.81261856900347       -1.06049470450423
H           -3.52643028933981       -4.47685520560116       -0.67717480990401
H           -2.05574154905042       -4.13710319705522       -1.58830171810269
H            1.40853013940742       -1.68764792398323        2.58961891835089
H            0.69462260678742       -1.24050608898566        4.90265255396904
H           -1.08469901594164        0.42848774968352        5.34652067064720
H           -3.08479080086342        3.14701711357635        1.59434359540966
H           -3.46119695963650        1.42167602512306        1.60478042998843
H           -1.90953128504499        2.97821912145619        3.71419777222614
H           -3.13863342545709        1.74788969657784        3.96110432302705
H           -0.50435256080098        3.67678666931656        1.87107393874974
H            0.51276959324954        2.78541871927639        0.73041388838804
H           -0.36796794650633        4.45029071817696       -0.76333071623903
H           -1.91114014209908        4.51456261875969        0.07003029641649
H           -1.98396445528729        3.70686753243210       -2.97050691909998
H           -2.76692287098176        1.62583837663558       -4.06056962549291
H           -2.67840277674676       -0.51264568425819       -2.84543637770264
H            0.54201506590818        0.78623549723574       -3.99469385295762
H            1.96544063963401       -0.12323639039036       -4.49869601513601
H            1.84662057977800        1.60828339629661       -4.84398423151812
H            2.23020065474767        3.24533963856486       -3.22179230439627
78
 energy: -112.368439805992 gnorm: 0.008966734761 xtb: 6.7.1 (edcfbbe)
C            2.98342494411049        5.19736377268999       -1.74260891589483
O            3.42203515155849        4.12865115747419       -0.93303746494705
C            3.16522460949530        2.86421849570593       -1.31921894706425
C            3.59523511125159        1.85956400062939       -0.44565506614986
C            3.34940610185778        0.52941418491020       -0.70905540844462
C            3.84513312572831       -0.53402500316718        0.21809016963296
C            2.65719679803979        0.20435836537113       -1.88101864559814
S            2.27523370556967       -1.50790520950574       -2.17313125924326
S            0.22837603671886       -1.49992986017320       -2.32696168178931
P           -0.49659086796370       -1.55635316998574       -0.35334974291234
N           -0.65082981924168       -2.99435657910093        0.41299289549104
C            0.58877347654321       -3.79452391648927        0.48152717293663
C            0.68577373874531       -4.83851953423620       -0.62737856263547
C            0.72332384954150       -4.45116261048312        1.85269901367208
C           -1.93887631395869       -3.69797146541715        0.53450829441891
C           -2.75455685793217       -3.05495056113193        1.64875258556136
C           -2.70225539065692       -3.77464596850439       -0.78224368543266
O            0.50863942510713       -0.59259910982962        0.40545808048752
C            0.13701790851113       -0.22725478309335        1.73372698521254
C            0.67524289931523       -0.94922874441462        2.78956982433211
C            0.27430463515714       -0.68982575912628        4.08689542106133
C           -0.70724401920150        0.25798071039548        4.34086592381260
C           -1.21778032621327        0.98597460390637        3.28740789344204
C           -0.77274015613641        0.78096522099090        1.97629787256247
C           -1.38706302803972        1.81337415271618        1.07291288492525
C           -2.68947528439987        2.15282165849527        1.84108718247019
C           -2.29604822361971        2.02642121306923        3.31675513897323
C           -0.50266511051117        3.07902549646482        0.95479689699691
C           -1.09602866634260        3.83083399720568       -0.24342742655874
C           -1.63042593425908        2.72363483150384       -1.10159359098994
C           -2.01129012109718        2.76193610278622       -2.42596951868952
C           -2.42524373672192        1.58654853513284       -3.03978851960106
C           -2.39092226383335        0.38580996092059       -2.35508420067916
C           -2.01336731310761        0.36279187491065       -1.01851997194237
C           -1.67659120359711        1.53113131519260       -0.37227980295654
O           -1.91862440678605       -0.89509401981106       -0.35024266137283
C            2.28111184656363        1.17461305186049       -2.80621084225049
C            1.62019998967496        0.83095912430141       -4.10216497317444
C            2.52448885296419        2.50673738226064       -2.50065844122510
H            3.44937123213162        5.17780472967128       -2.73288637681717
H            3.28879197536286        6.09930263118812       -1.21842426089068
H            1.89207273032565        5.18794249410160       -1.85531604418288
H            4.13269529308080        2.15598821910372        0.44073991643603
H            4.29255746669942       -0.08745345894185        1.10059502899563
H            4.59220457835740       -1.14967471361489       -0.28145963261866
H            3.03076972882001       -1.18822748016149        0.52461086107940
H            1.40719419348015       -3.07370924213160        0.34653932130765
H            0.60712815055576       -4.38230339374722       -1.61145998190985
H            1.64869527448388       -5.33721603785112       -0.55958448844202
H           -0.09052418990362       -5.59153572961426       -0.52428128298513
H            1.71884676912369       -4.87480105479065        1.95289851609042
H            0.00494844929382       -5.25781610673200        1.97197663146791
H            0.56272955757560       -3.73032476847669        2.64912088519738
H           -1.68140488563606       -4.71446376054467        0.83685145487267
H           -2.16325157717372       -3.00387041983568        2.55932827986345
H           -3.64584902683184       -3.64375583375096        1.84307298853725
H           -3.05546841027118       -2.04945245301275        1.37205992171557
H           -3.10615253296229       -2.80567836265659       -1.05668045567599
H           -3.53140164930431       -4.46949874426381       -0.67927363829336
H           -2.05430575176142       -4.12970578135931       -1.58051849535052
H            1.41881447576919       -1.70096807870382        2.58092260017705
H            0.70739356792682       -1.25079052350668        4.89915847135884
H           -1.06715174991203        0.42352762321063        5.34367707727225
H           -3.06918032139366        3.13799725831426        1.58454636491592
H           -3.45485085100126        1.41530145365189        1.59426048528276
H           -1.90399163366080        2.96939198928479        3.70538451166822
H           -3.13056550454456        1.73439949576098        3.95278820906187