      -----------------------------------------------------------      
     |                   =====================                   |     
     |                           x T B                           |     
     |                   =====================                   |     
     |                         S. Grimme                         |     
     |          Mulliken Center for Theoretical Chemistry        |     
     |                    University of Bonn                     |     
      -----------------------------------------------------------      

   * xtb version 6.7.1 (edcfbbe) compiled by 'conda@3ef47c1a292c' on 2024-11-25

   xtb is free software: you can redistribute it and/or modify it under
   the terms of the GNU Lesser General Public License as published by
   the Free Software Foundation, either version 3 of the License, or
   (at your option) any later version.
   
   xtb is distributed in the hope that it will be useful,
   but WITHOUT ANY WARRANTY; without even the implied warranty of
   MERCHANTABILITY or FITNESS FOR A PARTICULAR PURPOSE.  See the
   GNU Lesser General Public License for more details.
   
   Cite this work as:
   * C. Bannwarth, E. Caldeweyher, S. Ehlert, A. Hansen, P. Pracht,
     J. Seibert, S. Spicher, S. Grimme, WIREs Comput. Mol. Sci., 2020, 11,
     e01493. DOI: 10.1002/wcms.1493
   
   for GFN2-xTB:
   * C. Bannwarth, S. Ehlert and S. Grimme., J. Chem. Theory Comput., 2019,
     15, 1652-1671. DOI: 10.1021/acs.jctc.8b01176
   for GFN1-xTB:
   * S. Grimme, C. Bannwarth, P. Shushkov, J. Chem. Theory Comput., 2017,
     13, 1989-2009. DOI: 10.1021/acs.jctc.7b00118
   for GFN0-xTB:
   * P. Pracht, E. Caldeweyher, S. Ehlert, S. Grimme, ChemRxiv, 2019, preprint.
     DOI: 10.26434/chemrxiv.8326202.v1
   for GFN-FF:
   * S. Spicher and S. Grimme, Angew. Chem. Int. Ed., 2020, 59, 15665-15673.
     DOI: 10.1002/anie.202004239
   
   for ALPB and GBSA implicit solvation:
   * S. Ehlert, M. Stahn, S. Spicher, S. Grimme, J. Chem. Theory Comput.,
     2021, 17, 4250-4261. DOI: 10.1021/acs.jctc.1c00471
   
   for ddCOSMO and CPCM-X implicit solvation:
   * M. Stahn, S. Ehlert, S. Grimme, J. Phys. Chem. A,
     2023, XX, XXXX-XXXX. DOI: 10.1021/acs.jpca.3c04382
   
   for DFT-D4:
   * E. Caldeweyher, C. Bannwarth and S. Grimme, J. Chem. Phys., 2017,
     147, 034112. DOI: 10.1063/1.4993215
   * E. Caldeweyher, S. Ehlert, A. Hansen, H. Neugebauer, S. Spicher,
     C. Bannwarth and S. Grimme, J. Chem. Phys., 2019, 150, 154122.
     DOI: 10.1063/1.5090222
   * E. Caldeweyher, J.-M. Mewes, S. Ehlert and S. Grimme, Phys. Chem. Chem. Phys.
     2020, 22, 8499-8512. DOI: 10.1039/D0CP00502A
   
   for sTDA-xTB:
   * S. Grimme and C. Bannwarth, J. Chem. Phys., 2016, 145, 054103.
     DOI: 10.1063/1.4959605
   
   in the mass-spec context:
   * V. Asgeirsson, C. Bauer and S. Grimme, Chem. Sci., 2017, 8, 4879.
     DOI: 10.1039/c7sc00601b
   * J. Koopman and S. Grimme, ACS Omega 2019, 4, 12, 15120-15133.
     DOI: 10.1021/acsomega.9b02011
   
   for metadynamics refer to:
   * S. Grimme, J. Chem. Theory Comput., 2019, 155, 2847-2862
     DOI: 10.1021/acs.jctc.9b00143
   
   for SPH calculations refer to:
   * S. Spicher and S. Grimme, J. Chem. Theory Comput., 2021, 17, 1701-1714
     DOI: 10.1021/acs.jctc.0c01306
   
   for ONIOM refer to:
   * C. Plett, A. Katbashev, S. Ehlert, S. Grimme, M. Bursch,
     Phys. Chem. Chem. Phys., 2023, 25, 17860-17868. DOI: 10.1039/D3CP02178E
   
   for DIPRO refer to:
   * J. Kohn, N. Gildemeister, S. Grimme, D. Fazzi, A. Hansen,
     J. Chem. Phys., 2023, just accepted.
   
   for PTB refer to:
   * S. Grimme, M. Mueller, A. Hansen, J. Chem. Phys., 2023, 158, 124111.
     DOI: 10.1063/5.0137838
   
   with help from (in alphabetical order)
   P. Atkinson, C. Bannwarth, F. Bohle, G. Brandenburg, E. Caldeweyher
   M. Checinski, S. Dohm, S. Ehlert, S. Ehrlich, I. Gerasimov, C. Hölzer
   A. Katbashev, J. Kohn, J. Koopman, C. Lavigne, S. Lehtola, F. März, M. Müller,
   F. Musil, H. Neugebauer, J. Pisarek, C. Plett, P. Pracht, F. Pultar,
   J. Seibert, P. Shushkov, S. Spicher, M. Stahn, M. Steiner, T. Strunk,
   J. Stückrath, T. Rose, and J. Unsleber
   
 * started run on 2024/12/16 at 21:37:34.348     
   ID    Z sym.   atoms
    1    6 C      1, 3-12, 17-21, 23, 24, 26-31, 33-38, 40-53
    2    8 O      2, 13, 22, 32, 39
    3   15 P      14
    4   34 Se     15
    5   16 S      16
    6    7 N      25
    7    1 H      54-100

           -------------------------------------------------
          |                Calculation Setup                |
           -------------------------------------------------

          program call               : xtb --gfn2 --opt extreme -P 8 --charge 1 molecule.xyz
          hostname                   : node20
          coordinate file            : molecule.xyz
          omp threads                :                     8


           -------------------------------------------------
          |                 G F N 2 - x T B                 |
           -------------------------------------------------

        Reference                      10.1021/acs.jctc.8b01176
      * Hamiltonian:
        H0-scaling (s, p, d)           1.850000    2.230000    2.230000
        zeta-weighting                 0.500000
      * Dispersion:
        s8                             2.700000
        a1                             0.520000
        a2                             5.000000
        s9                             5.000000
      * Repulsion:
        kExp                           1.500000    1.000000
        rExp                           1.000000
      * Coulomb:
        alpha                          2.000000
        third order                    shell-resolved
        anisotropic                    true
        a3                             3.000000
        a5                             4.000000
        cn-shift                       1.200000
        cn-exp                         4.000000
        max-rad                        5.000000


          ...................................................
          :                      SETUP                      :
          :.................................................:
          :  # basis functions                 277          :
          :  # atomic orbitals                 274          :
          :  # shells                          156          :
          :  # electrons                       274          :
          :  max. iterations                   250          :
          :  Hamiltonian                  GFN2-xTB          :
          :  restarted?                      false          :
          :  GBSA solvation                  false          :
          :  PC potential                    false          :
          :  electronic temp.          300.0000000     K    :
          :  accuracy                    1.0000000          :
          :  -> integral cutoff          0.2500000E+02      :
          :  -> integral neglect         0.1000000E-07      :
          :  -> SCF convergence          0.1000000E-05 Eh   :
          :  -> wf. convergence          0.1000000E-03 e    :
          :  Broyden damping             0.4000000          :
          :  net charge                          1          :
          :  unpaired electrons                  0          :
          ...................................................

 iter      E             dE          RMSdq      gap      omega  full diag
   1   -151.9301655 -0.151930E+03  0.521E+00    2.48       0.0  T
   2   -152.1340573 -0.203892E+00  0.291E+00    2.39       1.0  T
   3   -152.1420962 -0.803889E-02  0.121E+00    2.50       1.0  T
   4   -152.1601959 -0.180997E-01  0.502E-01    2.47       1.0  T
   5   -152.1647577 -0.456182E-02  0.225E-01    2.53       1.0  T
   6   -152.1657061 -0.948377E-03  0.938E-02    2.54       1.0  T
   7   -152.1658663 -0.160164E-03  0.370E-02    2.53       1.0  T
   8   -152.1658931 -0.268196E-04  0.209E-02    2.54       1.0  T
   9   -152.1658931 -0.211563E-07  0.132E-02    2.54       1.0  T
  10   -152.1658993 -0.619885E-05  0.592E-03    2.54       1.7  T
  11   -152.1658997 -0.375449E-06  0.416E-03    2.54       2.4  T
  12   -152.1659000 -0.290783E-06  0.199E-03    2.54       5.0  T
  13   -152.1659001 -0.790670E-07  0.100E-03    2.54      10.0  T
  14   -152.1659001 -0.643487E-08  0.430E-04    2.54      23.2  T

   *** convergence criteria satisfied after 14 iterations ***

         #    Occupation            Energy/Eh            Energy/eV
      -------------------------------------------------------------
         1        2.0000           -0.8860572             -24.1108
       ...           ...                  ...                  ...
       131        2.0000           -0.4859248             -13.2227
       132        2.0000           -0.4842293             -13.1765
       133        2.0000           -0.4745065             -12.9120
       134        2.0000           -0.4720703             -12.8457
       135        2.0000           -0.4542496             -12.3608
       136        2.0000           -0.4533141             -12.3353
       137        2.0000           -0.4452995             -12.1172 (HOMO)
       138                         -0.3520192              -9.5789 (LUMO)
       139                         -0.3453771              -9.3982
       140                         -0.3304419              -8.9918
       141                         -0.3288139              -8.9475
       142                         -0.3262461              -8.8776
       ...                                ...                  ...
       274                          2.1594353              58.7612
      -------------------------------------------------------------
                  HL-Gap            0.0932804 Eh            2.5383 eV
             Fermi-level           -0.3986594 Eh          -10.8481 eV

 SCC (total)                   0 d,  0 h,  0 min,  2.600 sec
 SCC setup                      ...        0 min,  0.000 sec (  0.017%)
 Dispersion                     ...        0 min,  0.002 sec (  0.074%)
 classical contributions        ...        0 min,  0.000 sec (  0.006%)
 integral evaluation            ...        0 min,  0.012 sec (  0.451%)
 iterations                     ...        0 min,  2.396 sec ( 92.156%)
 molecular gradient             ...        0 min,  0.172 sec (  6.603%)
 printout                       ...        0 min,  0.018 sec (  0.693%)

         :::::::::::::::::::::::::::::::::::::::::::::::::::::
         ::                     SUMMARY                     ::
         :::::::::::::::::::::::::::::::::::::::::::::::::::::
         :: total energy            -149.933633366237 Eh    ::
         :: gradient norm              0.501354923441 Eh/a0 ::
         :: HOMO-LUMO gap              2.538288179081 eV    ::
         ::.................................................::
         :: SCC energy              -152.160340229841 Eh    ::
         :: -> isotropic ES            0.139117982523 Eh    ::
         :: -> anisotropic ES          0.002864009656 Eh    ::
         :: -> anisotropic XC          0.065835168112 Eh    ::
         :: -> dispersion             -0.145264512669 Eh    ::
         :: repulsion energy           2.226706863604 Eh    ::
         :: add. restraining           0.000000000000 Eh    ::
         :: total charge               1.000000000000 e     ::
         :::::::::::::::::::::::::::::::::::::::::::::::::::::

      ----------------------------------------------------------- 
     |                   =====================                   |
     |                        A N C O P T                        |
     |                   =====================                   |
     |               Approximate Normal Coordinate               |
     |                Rational Function Optimizer                |
      ----------------------------------------------------------- 
      ----------------------------------------------------------- 
     |                   =====================                   |
     |                        A N C O P T                        |
     |                   =====================                   |
     |               Approximate Normal Coordinate               |
     |                Rational Function Optimizer                |
      ----------------------------------------------------------- 

          ...................................................
          :                      SETUP                      :
          :.................................................:
          :   optimization level           extreme          :
          :   max. optcycles                  2000          :
          :   ANC micro-cycles                  20          :
          :   degrees of freedom               294          :
          :.................................................:
          :   RF solver                   davidson          :
          :   write xtbopt.log                true          :
          :   linear?                        false          :
          :   energy convergence         0.5000000E-07 Eh   :
          :   grad. convergence          0.5000000E-04 Eh/α :
          :   maxmium RF displ.          1.0000000          :
          :   Hlow (freq-cutoff)         0.1000000E-01      :
          :   Hmax (freq-cutoff)         5.0000000          :
          :   S6 in model hess.         20.0000000          :
          ...................................................

generating ANC from exact Hessian ...
Using Lindh-Hessian (1995)
 Shifting diagonal of input Hessian by    1.0025916653562866E-002
 Lowest  eigenvalues of input Hessian
    0.010000    0.000000    0.000000    0.000000    0.000000    0.000000
    0.000000    0.010068    0.010092    0.010137    0.010217    0.010266
    0.010351    0.010537    0.010593    0.010614    0.010825    0.011104
 Highest eigenvalues
    2.086191    2.093099    2.105755    2.127887    2.201872    2.206489


........................................................................
.............................. CYCLE    1 ..............................
........................................................................

 iter      E             dE          RMSdq      gap      omega  full diag
   1   -152.1659001 -0.152166E+03  0.212E-04    2.54       0.0  T
   2   -152.1659001 -0.373149E-09  0.154E-04    2.54      64.8  T
   3   -152.1659001 -0.254630E-09  0.113E-04    2.54      88.1  T
     SCC iter.                  ...        0 min,  0.335 sec
     gradient                   ...        0 min,  0.123 sec
 * total energy  :  -149.9336334 Eh     change       -0.7238754E-08 Eh
   gradient norm :     0.5013528 Eh/α   predicted     0.0000000E+00 (-100.00%)
   displ. norm   :     0.5466216 α      lambda       -0.2491881E+00
   maximum displ.:     0.2448023 α      in ANC's #215, #214, #219, ...

........................................................................
.............................. CYCLE    2 ..............................
........................................................................

 iter      E             dE          RMSdq      gap      omega  full diag
   1   -152.2686782 -0.152269E+03  0.847E-01    2.39       0.0  T
   2   -152.2697896 -0.111135E-02  0.413E-01    2.55       1.0  T
   3   -152.2697040  0.855520E-04  0.148E-01    2.62       1.0  T
   4   -152.2697283 -0.242754E-04  0.706E-02    2.66       1.0  T
   5   -152.2700168 -0.288475E-03  0.244E-02    2.64       1.0  T
   6   -152.2700310 -0.142369E-04  0.150E-02    2.64       1.0  T
   7   -152.2700325 -0.150184E-05  0.894E-03    2.64       1.1  T
   8   -152.2700338 -0.133284E-05  0.554E-03    2.64       1.8  T
   9   -152.2700342 -0.389759E-06  0.246E-03    2.64       4.1  T
  10   -152.2700344 -0.174356E-06  0.111E-03    2.64       9.0  T
  11   -152.2700344 -0.292339E-07  0.543E-04    2.64      18.4  T
  12   -152.2700345 -0.812162E-08  0.263E-04    2.64      38.0  T
     SCC iter.                  ...        0 min,  1.768 sec
     gradient                   ...        0 min,  0.139 sec
 * total energy  :  -150.0768812 Eh     change       -0.1432478E+00 Eh
   gradient norm :     0.1684655 Eh/α   predicted    -0.1618250E+00 (  12.97%)
   displ. norm   :     0.5604789 α      lambda       -0.6477758E-01
   maximum displ.:     0.1252693 α      in ANC's #43, #47, #92, ...

........................................................................
.............................. CYCLE    3 ..............................
........................................................................

 iter      E             dE          RMSdq      gap      omega  full diag
   1   -152.3222683 -0.152322E+03  0.336E-01    2.32       0.0  T
   2   -152.3227124 -0.444113E-03  0.192E-01    2.36       1.0  T
   3   -152.3224656  0.246873E-03  0.793E-02    2.37       1.0  T
   4   -152.3227865 -0.320963E-03  0.359E-02    2.38       1.0  T
   5   -152.3228483 -0.617196E-04  0.192E-02    2.38       1.0  T
   6   -152.3228549 -0.661137E-05  0.126E-02    2.38       1.0  T
   7   -152.3228560 -0.112548E-05  0.698E-03    2.38       1.4  T
   8   -152.3228570 -0.103774E-05  0.325E-03    2.38       3.1  T
   9   -152.3228572 -0.126548E-06  0.170E-03    2.38       5.9  T
  10   -152.3228572 -0.407354E-07  0.924E-04    2.38      10.8  T
  11   -152.3228572 -0.865808E-08  0.486E-04    2.38      20.6  T
     SCC iter.                  ...        0 min,  1.552 sec
     gradient                   ...        0 min,  0.131 sec
 * total energy  :  -150.1240932 Eh     change       -0.4721201E-01 Eh
   gradient norm :     0.0749397 Eh/α   predicted    -0.4256333E-01 (  -9.85%)
   displ. norm   :     0.5660460 α      lambda       -0.2818984E-01
   maximum displ.:     0.1448583 α      in ANC's #21, #30, #43, ...

........................................................................
.............................. CYCLE    4 ..............................
........................................................................

 iter      E             dE          RMSdq      gap      omega  full diag
   1   -152.3384368 -0.152338E+03  0.234E-01    2.11       0.0  T
   2   -152.3387216 -0.284781E-03  0.138E-01    2.15       1.0  T
   3   -152.3385781  0.143449E-03  0.586E-02    2.15       1.0  T
   4   -152.3387749 -0.196772E-03  0.226E-02    2.16       1.0  T
   5   -152.3388021 -0.272189E-04  0.104E-02    2.16       1.0  T
   6   -152.3388066 -0.448104E-05  0.562E-03    2.16       1.8  T
   7   -152.3388070 -0.420722E-06  0.350E-03    2.16       2.9  T
   8   -152.3388073 -0.237248E-06  0.177E-03    2.16       5.7  T
   9   -152.3388073 -0.315922E-07  0.935E-04    2.16      10.7  T
  10   -152.3388073 -0.823246E-08  0.476E-04    2.16      21.0  T
     SCC iter.                  ...        0 min,  1.569 sec
     gradient                   ...        0 min,  0.125 sec
 * total energy  :  -150.1438446 Eh     change       -0.1975143E-01 Eh
   gradient norm :     0.0306197 Eh/α   predicted    -0.1861106E-01 (  -5.77%)
   displ. norm   :     0.6302410 α      lambda       -0.1208720E-01
   maximum displ.:     0.2346414 α      in ANC's #21, #43, #30, ...

........................................................................
.............................. CYCLE    5 ..............................
........................................................................

 iter      E             dE          RMSdq      gap      omega  full diag
   1   -152.3397940 -0.152340E+03  0.167E-01    2.03       0.0  T
   2   -152.3398526 -0.586599E-04  0.871E-02    2.04       1.0  T
   3   -152.3398182  0.344124E-04  0.297E-02    2.04       1.0  T
   4   -152.3398594 -0.411206E-04  0.140E-02    2.04       1.0  T
   5   -152.3398677 -0.835156E-05  0.621E-03    2.04       1.6  T
   6   -152.3398691 -0.138038E-05  0.300E-03    2.04       3.3  T
   7   -152.3398692 -0.988321E-07  0.201E-03    2.04       5.0  T
   8   -152.3398693 -0.710149E-07  0.927E-04    2.04      10.8  T
   9   -152.3398693 -0.111562E-07  0.510E-04    2.04      19.6  T
     SCC iter.                  ...        0 min,  1.567 sec
     gradient                   ...        0 min,  0.139 sec
 * total energy  :  -150.1532969 Eh     change       -0.9452275E-02 Eh
   gradient norm :     0.0228438 Eh/α   predicted    -0.8444149E-02 ( -10.67%)
   displ. norm   :     0.7039524 α      lambda       -0.8538268E-02
   maximum displ.:     0.2982472 α      in ANC's #21, #11, #29, ...

........................................................................
.............................. CYCLE    6 ..............................
........................................................................

 iter      E             dE          RMSdq      gap      omega  full diag
   1   -152.3445026 -0.152345E+03  0.141E-01    1.99       0.0  T
   2   -152.3445273 -0.247528E-04  0.741E-02    1.99       1.0  T
   3   -152.3445162  0.111523E-04  0.208E-02    1.98       1.0  T
   4   -152.3445295 -0.133684E-04  0.975E-03    1.98       1.0  T
   5   -152.3445327 -0.315954E-05  0.362E-03    1.98       2.8  T
   6   -152.3445336 -0.848261E-06  0.123E-03    1.98       8.2  T
   7   -152.3445336 -0.358698E-07  0.760E-04    1.98      13.2  T
   8   -152.3445336 -0.781509E-08  0.341E-04    1.98      29.3  T
     SCC iter.                  ...        0 min,  1.435 sec
     gradient                   ...        0 min,  0.129 sec
 * total energy  :  -150.1604317 Eh     change       -0.7134754E-02 Eh
   gradient norm :     0.0215243 Eh/α   predicted    -0.6384720E-02 ( -10.51%)
   displ. norm   :     0.7562264 α      lambda       -0.7003038E-02
   maximum displ.:     0.3315332 α      in ANC's #21, #11, #14, ...

........................................................................
.............................. CYCLE    7 ..............................
........................................................................

 iter      E             dE          RMSdq      gap      omega  full diag
   1   -152.3509153 -0.152351E+03  0.126E-01    1.97       0.0  T
   2   -152.3509363 -0.210374E-04  0.687E-02    1.96       1.0  T
   3   -152.3509281  0.821230E-05  0.175E-02    1.95       1.0  T
   4   -152.3509395 -0.114314E-04  0.803E-03    1.95       1.2  T
   5   -152.3509409 -0.138348E-05  0.257E-03    1.95       3.9  T
   6   -152.3509411 -0.161657E-06  0.118E-03    1.95       8.4  T
   7   -152.3509411 -0.297961E-07  0.750E-04    1.95      13.3  T
   8   -152.3509411 -0.592357E-08  0.318E-04    1.95      31.4  T
     SCC iter.                  ...        0 min,  1.515 sec
     gradient                   ...        0 min,  0.147 sec
 * total energy  :  -150.1663891 Eh     change       -0.5957440E-02 Eh
   gradient norm :     0.0169939 Eh/α   predicted    -0.5503968E-02 (  -7.61%)
   displ. norm   :     0.7743264 α      lambda       -0.5636855E-02
   maximum displ.:     0.3369531 α      in ANC's #21, #36, #6, ...

........................................................................
.............................. CYCLE    8 ..............................
........................................................................

 iter      E             dE          RMSdq      gap      omega  full diag
   1   -152.3586475 -0.152359E+03  0.112E-01    1.97       0.0  T
   2   -152.3586705 -0.230712E-04  0.644E-02    1.96       1.0  T
   3   -152.3586580  0.125511E-04  0.183E-02    1.95       1.0  T
   4   -152.3586746 -0.166025E-04  0.687E-03    1.95       1.5  T
   5   -152.3586754 -0.822884E-06  0.281E-03    1.95       3.6  T
   6   -152.3586756 -0.170056E-06  0.117E-03    1.95       8.5  T
   7   -152.3586756 -0.182475E-07  0.760E-04    1.95      13.2  T
   8   -152.3586756 -0.312014E-08  0.356E-04    1.95      28.1  T
     SCC iter.                  ...        0 min,  1.289 sec
     gradient                   ...        0 min,  0.176 sec
 * total energy  :  -150.1712198 Eh     change       -0.4830717E-02 Eh
   gradient norm :     0.0131672 Eh/α   predicted    -0.4508310E-02 (  -6.67%)
   displ. norm   :     0.7844166 α      lambda       -0.4546411E-02
   maximum displ.:     0.3183187 α      in ANC's #21, #6, #18, ...

........................................................................
.............................. CYCLE    9 ..............................
........................................................................

 iter      E             dE          RMSdq      gap      omega  full diag
   1   -152.3642617 -0.152364E+03  0.104E-01    1.97       0.0  T
   2   -152.3642791 -0.173993E-04  0.600E-02    1.96       1.0  T
   3   -152.3642685  0.106236E-04  0.164E-02    1.96       1.0  T
   4   -152.3642821 -0.136301E-04  0.590E-03    1.96       1.7  T
   5   -152.3642828 -0.661296E-06  0.242E-03    1.96       4.1  T
   6   -152.3642829 -0.159224E-06  0.789E-04    1.96      12.7  T
   7   -152.3642830 -0.265022E-07  0.432E-04    1.96      23.1  T
     SCC iter.                  ...        0 min,  1.151 sec
     gradient                   ...        0 min,  0.167 sec
 * total energy  :  -150.1751629 Eh     change       -0.3943095E-02 Eh
   gradient norm :     0.0120286 Eh/α   predicted    -0.3671937E-02 (  -6.88%)
   displ. norm   :     0.7954222 α      lambda       -0.3816685E-02
   maximum displ.:     0.2868185 α      in ANC's #21, #6, #17, ...

........................................................................
.............................. CYCLE   10 ..............................
........................................................................

 iter      E             dE          RMSdq      gap      omega  full diag
   1   -152.3683020 -0.152368E+03  0.107E-01    1.98       0.0  T
   2   -152.3683133 -0.112521E-04  0.593E-02    1.98       1.0  T
   3   -152.3683065  0.676161E-05  0.143E-02    1.97       1.0  T
   4   -152.3683140 -0.752605E-05  0.676E-03    1.97       1.5  T
   5   -152.3683158 -0.175596E-05  0.225E-03    1.97       4.4  T
   6   -152.3683161 -0.309163E-06  0.888E-04    1.97      11.3  T
   7   -152.3683161 -0.538489E-07  0.377E-04    1.97      26.5  T
     SCC iter.                  ...        0 min,  1.170 sec
     gradient                   ...        0 min,  0.129 sec
 * total energy  :  -150.1785153 Eh     change       -0.3352400E-02 Eh
   gradient norm :     0.0120697 Eh/α   predicted    -0.3115752E-02 (  -7.06%)
   displ. norm   :     0.8027346 α      lambda       -0.3322559E-02
   maximum displ.:     0.2884088 α      in ANC's #6, #17, #18, ...

........................................................................
.............................. CYCLE   11 ..............................
........................................................................

 iter      E             dE          RMSdq      gap      omega  full diag
   1   -152.3704413 -0.152370E+03  0.118E-01    1.99       0.0  T
   2   -152.3704521 -0.108784E-04  0.629E-02    1.99       1.0  T
   3   -152.3704467  0.543326E-05  0.152E-02    1.99       1.0  T
   4   -152.3704506 -0.393627E-05  0.823E-03    1.99       1.2  T
   5   -152.3704550 -0.434381E-05  0.222E-03    1.99       4.5  T
   6   -152.3704554 -0.375867E-06  0.886E-04    1.99      11.3  T
   7   -152.3704554 -0.299949E-07  0.459E-04    1.99      21.8  T
     SCC iter.                  ...        0 min,  1.317 sec
     gradient                   ...        0 min,  0.127 sec
 * total energy  :  -150.1814452 Eh     change       -0.2929861E-02 Eh
   gradient norm :     0.0113743 Eh/α   predicted    -0.2731789E-02 (  -6.76%)
   displ. norm   :     0.8067042 α      lambda       -0.2919858E-02
   maximum displ.:     0.3242296 α      in ANC's #6, #17, #18, ...

........................................................................
.............................. CYCLE   12 ..............................
........................................................................

 iter      E             dE          RMSdq      gap      omega  full diag
   1   -152.3727423 -0.152373E+03  0.130E-01    2.00       0.0  T
   2   -152.3727565 -0.141659E-04  0.670E-02    2.00       1.0  T
   3   -152.3727513  0.522601E-05  0.170E-02    2.00       1.0  T
   4   -152.3727545 -0.324361E-05  0.946E-03    2.00       1.1  T
   5   -152.3727603 -0.576894E-05  0.228E-03    2.00       4.4  T
   6   -152.3727607 -0.407019E-06  0.936E-04    2.00      10.7  T
   7   -152.3727607 -0.256176E-07  0.528E-04    2.00      18.9  T
     SCC iter.                  ...        0 min,  0.956 sec
     gradient                   ...        0 min,  0.124 sec
 * total energy  :  -150.1840030 Eh     change       -0.2557859E-02 Eh
   gradient norm :     0.0107720 Eh/α   predicted    -0.2410012E-02 (  -5.78%)
   displ. norm   :     0.8002175 α      lambda       -0.2569143E-02
   maximum displ.:     0.3572715 α      in ANC's #6, #17, #18, ...

........................................................................
.............................. CYCLE   13 ..............................
........................................................................

 iter      E             dE          RMSdq      gap      omega  full diag
   1   -152.3749941 -0.152375E+03  0.141E-01    2.00       0.0  T
   2   -152.3750128 -0.186454E-04  0.708E-02    2.01       1.0  T
   3   -152.3750099  0.283741E-05  0.176E-02    2.01       1.0  T
   4   -152.3750112 -0.128580E-05  0.989E-03    2.01       1.0  T
   5   -152.3750172 -0.594893E-05  0.202E-03    2.01       4.9  T
   6   -152.3750175 -0.290289E-06  0.896E-04    2.01      11.2  T
   7   -152.3750175 -0.232507E-07  0.492E-04    2.01      20.3  T
     SCC iter.                  ...        0 min,  1.196 sec
     gradient                   ...        0 min,  0.129 sec
 * total energy  :  -150.1861590 Eh     change       -0.2155997E-02 Eh
   gradient norm :     0.0100313 Eh/α   predicted    -0.2107149E-02 (  -2.27%)
   displ. norm   :     0.8060812 α      lambda       -0.2342431E-02
   maximum displ.:     0.3714640 α      in ANC's #6, #17, #40, ...

........................................................................
.............................. CYCLE   14 ..............................
........................................................................

 iter      E             dE          RMSdq      gap      omega  full diag
   1   -152.3706469 -0.152371E+03  0.144E-01    2.00       0.0  T
   2   -152.3706729 -0.260077E-04  0.718E-02    2.00       1.0  T
   3   -152.3706713  0.160059E-05  0.186E-02    2.01       1.0  T
   4   -152.3706726 -0.123444E-05  0.101E-02    2.01       1.0  T
   5   -152.3706780 -0.540013E-05  0.241E-03    2.01       4.1  T
   6   -152.3706784 -0.453479E-06  0.972E-04    2.01      10.3  T
   7   -152.3706785 -0.460211E-07  0.526E-04    2.01      19.0  T
     SCC iter.                  ...        0 min,  1.221 sec
     gradient                   ...        0 min,  0.140 sec
 * total energy  :  -150.1876804 Eh     change       -0.1521405E-02 Eh
   gradient norm :     0.0183844 Eh/α   predicted    -0.1932233E-02 (  27.00%)
   displ. norm   :     0.6336414 α      lambda       -0.2232521E-02
   maximum displ.:     0.3418208 α      in ANC's #6, #17, #18, ...

........................................................................
.............................. CYCLE   15 ..............................
........................................................................

 iter      E             dE          RMSdq      gap      omega  full diag
   1   -152.3821293 -0.152382E+03  0.120E-01    1.99       0.0  T
   2   -152.3821552 -0.259536E-04  0.587E-02    2.00       1.0  T
   3   -152.3821554 -0.207370E-06  0.152E-02    2.00       1.0  T
   4   -152.3821563 -0.908128E-06  0.810E-03    2.00       1.2  T
   5   -152.3821588 -0.246302E-05  0.231E-03    2.00       4.3  T
   6   -152.3821591 -0.334080E-06  0.851E-04    2.00      11.8  T
   7   -152.3821592 -0.139417E-07  0.466E-04    2.00      21.4  T
     SCC iter.                  ...        0 min,  1.182 sec
     gradient                   ...        0 min,  0.131 sec
 * total energy  :  -150.1890911 Eh     change       -0.1410643E-02 Eh
   gradient norm :     0.0147974 Eh/α   predicted    -0.1564452E-02 (  10.90%)
   displ. norm   :     0.6340204 α      lambda       -0.1569180E-02
   maximum displ.:     0.3336816 α      in ANC's #6, #17, #40, ...

........................................................................
.............................. CYCLE   16 ..............................
........................................................................

 iter      E             dE          RMSdq      gap      omega  full diag
   1   -152.3786611 -0.152379E+03  0.107E-01    2.00       0.0  T
   2   -152.3786756 -0.144307E-04  0.524E-02    2.00       1.0  T
   3   -152.3786757 -0.103007E-06  0.132E-02    2.00       1.0  T
   4   -152.3786759 -0.285018E-06  0.695E-03    2.00       1.4  T
   5   -152.3786780 -0.206148E-05  0.192E-03    2.00       5.2  T
   6   -152.3786783 -0.318556E-06  0.678E-04    2.00      14.8  T
   7   -152.3786783 -0.790257E-08  0.415E-04    2.00      24.1  T
     SCC iter.                  ...        0 min,  1.157 sec
     gradient                   ...        0 min,  0.123 sec
 * total energy  :  -150.1902727 Eh     change       -0.1181606E-02 Eh
   gradient norm :     0.0120925 Eh/α   predicted    -0.1099984E-02 (  -6.91%)
   displ. norm   :     0.6447252 α      lambda       -0.1341331E-02
   maximum displ.:     0.3744674 α      in ANC's #6, #17, #40, ...

........................................................................
.............................. CYCLE   17 ..............................
........................................................................

 iter      E             dE          RMSdq      gap      omega  full diag
   1   -152.3824308 -0.152382E+03  0.108E-01    2.00       0.0  T
   2   -152.3824440 -0.131963E-04  0.523E-02    2.00       1.0  T
   3   -152.3824442 -0.261716E-06  0.129E-02    2.00       1.0  T
   4   -152.3824444 -0.160851E-06  0.702E-03    2.00       1.4  T
   5   -152.3824465 -0.213860E-05  0.179E-03    2.00       5.6  T
   6   -152.3824468 -0.240269E-06  0.666E-04    2.00      15.0  T
   7   -152.3824468 -0.118473E-08  0.383E-04    2.00      26.1  T
     SCC iter.                  ...        0 min,  1.283 sec
     gradient                   ...        0 min,  0.131 sec
 * total energy  :  -150.1913953 Eh     change       -0.1122632E-02 Eh
   gradient norm :     0.0117468 Eh/α   predicted    -0.9494431E-03 ( -15.43%)
   displ. norm   :     0.6872635 α      lambda       -0.1435997E-02
   maximum displ.:     0.4242051 α      in ANC's #6, #17, #10, ...

........................................................................
.............................. CYCLE   18 ..............................
........................................................................

 iter      E             dE          RMSdq      gap      omega  full diag
   1   -152.3869327 -0.152387E+03  0.115E-01    2.02       0.0  T
   2   -152.3869481 -0.154250E-04  0.563E-02    2.02       1.0  T
   3   -152.3869476  0.578733E-06  0.140E-02    2.01       1.0  T
   4   -152.3869488 -0.126615E-05  0.761E-03    2.01       1.3  T
   5   -152.3869511 -0.226317E-05  0.211E-03    2.01       4.7  T
   6   -152.3869515 -0.382627E-06  0.748E-04    2.01      13.4  T
   7   -152.3869515 -0.767398E-08  0.444E-04    2.01      22.5  T
     SCC iter.                  ...        0 min,  1.210 sec
     gradient                   ...        0 min,  0.156 sec
 * total energy  :  -150.1926349 Eh     change       -0.1239616E-02 Eh
   gradient norm :     0.0114004 Eh/α   predicted    -0.1057135E-02 ( -14.72%)
   displ. norm   :     0.7226222 α      lambda       -0.1438791E-02
   maximum displ.:     0.4479109 α      in ANC's #6, #17, #10, ...

........................................................................
.............................. CYCLE   19 ..............................
........................................................................

 iter      E             dE          RMSdq      gap      omega  full diag
   1   -152.3904465 -0.152390E+03  0.129E-01    2.03       0.0  T
   2   -152.3904680 -0.215683E-04  0.622E-02    2.03       1.0  T
   3   -152.3904659  0.209131E-05  0.160E-02    2.03       1.0  T
   4   -152.3904686 -0.270262E-05  0.906E-03    2.03       1.1  T
   5   -152.3904725 -0.384627E-05  0.205E-03    2.03       4.9  T
   6   -152.3904728 -0.349048E-06  0.818E-04    2.03      12.2  T
   7   -152.3904728 -0.174878E-07  0.456E-04    2.03      22.0  T
     SCC iter.                  ...        0 min,  1.375 sec
     gradient                   ...        0 min,  0.207 sec
 * total energy  :  -150.1938644 Eh     change       -0.1229493E-02 Eh
   gradient norm :     0.0117152 Eh/α   predicted    -0.1095057E-02 ( -10.93%)
   displ. norm   :     0.7489608 α      lambda       -0.1469385E-02
   maximum displ.:     0.4748325 α      in ANC's #6, #17, #9, ...

........................................................................
.............................. CYCLE   20 ..............................
........................................................................

 iter      E             dE          RMSdq      gap      omega  full diag
   1   -152.3860644 -0.152386E+03  0.141E-01    2.05       0.0  T
   2   -152.3860879 -0.235735E-04  0.675E-02    2.05       1.0  T
   3   -152.3860867  0.122227E-05  0.165E-02    2.05       1.0  T
   4   -152.3860871 -0.381948E-06  0.929E-03    2.05       1.1  T
   5   -152.3860928 -0.565990E-05  0.202E-03    2.05       5.0  T
   6   -152.3860931 -0.314815E-06  0.952E-04    2.05      10.5  T
   7   -152.3860931 -0.250136E-07  0.518E-04    2.05      19.3  T
     SCC iter.                  ...        0 min,  0.988 sec
     gradient                   ...        0 min,  0.151 sec
 * total energy  :  -150.1950534 Eh     change       -0.1189021E-02 Eh
   gradient norm :     0.0118670 Eh/α   predicted    -0.1146820E-02 (  -3.55%)
   displ. norm   :     0.7418142 α      lambda       -0.1334963E-02
   maximum displ.:     0.4664650 α      in ANC's #6, #9, #17, ...
 * RMSD in coord.:     1.0740231 α      energy gain  -0.2614201E+00 Eh

generating ANC from exact Hessian ...
Using Lindh-Hessian (1995)
 Shifting diagonal of input Hessian by    1.0408658670715684E-002
 Lowest  eigenvalues of input Hessian
    0.010000    0.010357    0.000000    0.000000    0.000000    0.000000
    0.000000    0.000000    0.010438    0.010504    0.010543    0.010603
    0.010707    0.010730    0.010857    0.011000    0.011219    0.011242
 Highest eigenvalues
    2.048323    2.118405    2.136695    2.144307    2.154147    2.301386


........................................................................
.............................. CYCLE   21 ..............................
........................................................................

 iter      E             dE          RMSdq      gap      omega  full diag
   1   -152.3866876 -0.152387E+03  0.134E-01    2.08       0.0  T
   2   -152.3867087 -0.210852E-04  0.647E-02    2.08       1.0  T
   3   -152.3867076  0.103062E-05  0.158E-02    2.08       1.0  T
   4   -152.3867068  0.826696E-06  0.904E-03    2.08       1.1  T
   5   -152.3867130 -0.618341E-05  0.179E-03    2.08       5.6  T
   6   -152.3867132 -0.211464E-06  0.873E-04    2.08      11.5  T
   7   -152.3867132 -0.216413E-07  0.451E-04    2.08      22.2  T
     SCC iter.                  ...        0 min,  1.103 sec
     gradient                   ...        0 min,  0.124 sec
 * total energy  :  -150.1961760 Eh     change       -0.1122598E-02 Eh
   gradient norm :     0.0108705 Eh/α   predicted     0.0000000E+00 (-100.00%)
   displ. norm   :     0.1680687 α      lambda       -0.6031170E-03
   maximum displ.:     0.0840152 α      in ANC's #7, #10, #42, ...

........................................................................
.............................. CYCLE   22 ..............................
........................................................................

 iter      E             dE          RMSdq      gap      omega  full diag
   1   -152.3900022 -0.152390E+03  0.508E-02    2.15       0.0  T
   2   -152.3900056 -0.344450E-05  0.251E-02    2.14       1.0  T
   3   -152.3900055  0.130708E-06  0.592E-03    2.14       1.7  T
   4   -152.3900057 -0.270400E-06  0.335E-03    2.14       3.0  T
   5   -152.3900063 -0.548369E-06  0.725E-04    2.14      13.8  T
   6   -152.3900063 -0.178546E-07  0.352E-04    2.14      28.4  T
     SCC iter.                  ...        0 min,  1.029 sec
     gradient                   ...        0 min,  0.148 sec
 * total energy  :  -150.1966789 Eh     change       -0.5028540E-03 Eh
   gradient norm :     0.0059838 Eh/α   predicted    -0.3100783E-03 ( -38.34%)
   displ. norm   :     0.5206136 α      lambda       -0.1295493E-02
   maximum displ.:     0.2608190 α      in ANC's #7, #10, #42, ...

........................................................................
.............................. CYCLE   23 ..............................
........................................................................

 iter      E             dE          RMSdq      gap      omega  full diag
   1   -152.3933353 -0.152393E+03  0.128E-01    2.14       0.0  T
   2   -152.3933557 -0.203713E-04  0.608E-02    2.14       1.0  T
   3   -152.3933551  0.580229E-06  0.145E-02    2.15       1.0  T
   4   -152.3933564 -0.131576E-05  0.881E-03    2.15       1.1  T
   5   -152.3933598 -0.343984E-05  0.227E-03    2.15       4.4  T
   6   -152.3933600 -0.140973E-06  0.132E-03    2.15       7.6  T
   7   -152.3933600 -0.680884E-07  0.729E-04    2.15      13.7  T
   8   -152.3933601 -0.682317E-08  0.375E-04    2.15      26.7  T
     SCC iter.                  ...        0 min,  1.313 sec
     gradient                   ...        0 min,  0.124 sec
 * total energy  :  -150.1976413 Eh     change       -0.9624246E-03 Eh
   gradient norm :     0.0092554 Eh/α   predicted    -0.8233106E-03 ( -14.45%)
   displ. norm   :     0.5657632 α      lambda       -0.1021903E-02
   maximum displ.:     0.2906548 α      in ANC's #7, #10, #42, ...

........................................................................
.............................. CYCLE   24 ..............................
........................................................................

 iter      E             dE          RMSdq      gap      omega  full diag
   1   -152.3924730 -0.152392E+03  0.113E-01    2.21       0.0  T
   2   -152.3924880 -0.150578E-04  0.551E-02    2.21       1.0  T
   3   -152.3924883 -0.258002E-06  0.134E-02    2.21       1.0  T
   4   -152.3924882  0.849056E-07  0.749E-03    2.21       1.3  T
   5   -152.3924908 -0.262580E-05  0.190E-03    2.21       5.3  T
   6   -152.3924910 -0.145941E-06  0.968E-04    2.21      10.3  T
   7   -152.3924910 -0.609438E-08  0.567E-04    2.21      17.6  T
     SCC iter.                  ...        0 min,  1.090 sec
     gradient                   ...        0 min,  0.124 sec
 * total energy  :  -150.1984562 Eh     change       -0.8148576E-03 Eh
   gradient norm :     0.0147260 Eh/α   predicted    -0.6745102E-03 ( -17.22%)
   displ. norm   :     0.6069788 α      lambda       -0.1115222E-02
   maximum displ.:     0.3171737 α      in ANC's #7, #10, #16, ...

........................................................................
.............................. CYCLE   25 ..............................
........................................................................

 iter      E             dE          RMSdq      gap      omega  full diag
   1   -152.3901718 -0.152390E+03  0.137E-01    2.19       0.0  T
   2   -152.3901936 -0.217997E-04  0.631E-02    2.20       1.0  T
   3   -152.3901950 -0.141161E-05  0.148E-02    2.20       1.0  T
   4   -152.3901932  0.185635E-05  0.808E-03    2.20       1.2  T
   5   -152.3901976 -0.446833E-05  0.207E-03    2.20       4.8  T
   6   -152.3901978 -0.147085E-06  0.114E-03    2.20       8.7  T
   7   -152.3901978 -0.433243E-07  0.605E-04    2.20      16.5  T
   8   -152.3901978 -0.703963E-08  0.342E-04    2.20      29.3  T
     SCC iter.                  ...        0 min,  1.336 sec
     gradient                   ...        0 min,  0.132 sec
 * total energy  :  -150.1993913 Eh     change       -0.9351327E-03 Eh
   gradient norm :     0.0151498 Eh/α   predicted    -0.7630479E-03 ( -18.40%)
   displ. norm   :     0.5970046 α      lambda       -0.1333082E-02
   maximum displ.:     0.3334564 α      in ANC's #7, #10, #16, ...

........................................................................
.............................. CYCLE   26 ..............................
........................................................................

 iter      E             dE          RMSdq      gap      omega  full diag
   1   -152.3923210 -0.152392E+03  0.111E-01    2.21       0.0  T
   2   -152.3923355 -0.145623E-04  0.522E-02    2.21       1.0  T
   3   -152.3923355  0.446952E-07  0.138E-02    2.21       1.0  T
   4   -152.3923359 -0.434777E-06  0.742E-03    2.21       1.3  T
   5   -152.3923384 -0.245812E-05  0.143E-03    2.21       7.0  T
   6   -152.3923384 -0.746894E-07  0.691E-04    2.21      14.5  T
   7   -152.3923385 -0.172327E-07  0.350E-04    2.21      28.6  T
     SCC iter.                  ...        0 min,  1.113 sec
     gradient                   ...        0 min,  0.183 sec
 * total energy  :  -150.2004149 Eh     change       -0.1023638E-02 Eh
   gradient norm :     0.0099873 Eh/α   predicted    -0.9041184E-03 ( -11.68%)
   displ. norm   :     0.6835763 α      lambda       -0.1054720E-02
   maximum displ.:     0.3815343 α      in ANC's #7, #10, #16, ...

........................................................................
.............................. CYCLE   27 ..............................
........................................................................

 iter      E             dE          RMSdq      gap      omega  full diag
   1   -152.3893171 -0.152389E+03  0.139E-01    2.18       0.0  T
   2   -152.3893394 -0.222920E-04  0.636E-02    2.18       1.0  T
   3   -152.3893409 -0.152119E-05  0.154E-02    2.18       1.0  T
   4   -152.3893401  0.776642E-06  0.855E-03    2.18       1.2  T
   5   -152.3893435 -0.332507E-05  0.188E-03    2.18       5.3  T
   6   -152.3893436 -0.104385E-06  0.104E-03    2.18       9.6  T
   7   -152.3893436 -0.187485E-07  0.612E-04    2.18      16.3  T
   8   -152.3893436 -0.105628E-07  0.356E-04    2.18      28.1  T
     SCC iter.                  ...        0 min,  1.397 sec
     gradient                   ...        0 min,  0.124 sec
 * total energy  :  -150.2012831 Eh     change       -0.8681232E-03 Eh
   gradient norm :     0.0100842 Eh/α   predicted    -0.7737830E-03 ( -10.87%)
   displ. norm   :     0.6196821 α      lambda       -0.1002336E-02
   maximum displ.:     0.3662174 α      in ANC's #7, #10, #5, ...

........................................................................
.............................. CYCLE   28 ..............................
........................................................................

 iter      E             dE          RMSdq      gap      omega  full diag
   1   -152.3946205 -0.152395E+03  0.106E-01    2.20       0.0  T
   2   -152.3946353 -0.147606E-04  0.504E-02    2.20       1.0  T
   3   -152.3946345  0.812464E-06  0.134E-02    2.20       1.0  T
   4   -152.3946356 -0.108713E-05  0.772E-03    2.20       1.3  T
   5   -152.3946379 -0.236185E-05  0.188E-03    2.20       5.3  T
   6   -152.3946381 -0.192016E-06  0.823E-04    2.20      12.1  T
   7   -152.3946382 -0.226925E-07  0.486E-04    2.20      20.6  T
     SCC iter.                  ...        0 min,  1.032 sec
     gradient                   ...        0 min,  0.124 sec
 * total energy  :  -150.2020473 Eh     change       -0.7642452E-03 Eh
   gradient norm :     0.0084328 Eh/α   predicted    -0.6936352E-03 (  -9.24%)
   displ. norm   :     0.7130454 α      lambda       -0.8041218E-03
   maximum displ.:     0.4111319 α      in ANC's #7, #10, #16, ...

........................................................................
.............................. CYCLE   29 ..............................
........................................................................

 iter      E             dE          RMSdq      gap      omega  full diag
   1   -152.3899180 -0.152390E+03  0.142E-01    2.22       0.0  T
   2   -152.3899428 -0.248559E-04  0.650E-02    2.21       1.0  T
   3   -152.3899440 -0.118629E-05  0.153E-02    2.21       1.0  T
   4   -152.3899436  0.431928E-06  0.880E-03    2.21       1.1  T
   5   -152.3899467 -0.306729E-05  0.262E-03    2.21       3.8  T
   6   -152.3899472 -0.495856E-06  0.837E-04    2.21      11.9  T
   7   -152.3899472 -0.102776E-07  0.499E-04    2.21      20.0  T
     SCC iter.                  ...        0 min,  1.198 sec
     gradient                   ...        0 min,  0.151 sec
 * total energy  :  -150.2026016 Eh     change       -0.5542852E-03 Eh
   gradient norm :     0.0101551 Eh/α   predicted    -0.6064826E-03 (   9.42%)
   displ. norm   :     0.5051351 α      lambda       -0.6857665E-03
   maximum displ.:     0.3125178 α      in ANC's #7, #10, #5, ...

........................................................................
.............................. CYCLE   30 ..............................
........................................................................

 iter      E             dE          RMSdq      gap      omega  full diag
   1   -152.3975834 -0.152398E+03  0.123E-01    2.20       0.0  T
   2   -152.3976023 -0.189153E-04  0.537E-02    2.21       1.0  T
   3   -152.3976023  0.491468E-09  0.121E-02    2.21       1.0  T
   4   -152.3976028 -0.471114E-06  0.741E-03    2.21       1.3  T
   5   -152.3976059 -0.307774E-05  0.196E-03    2.21       5.1  T
   6   -152.3976060 -0.188046E-06  0.778E-04    2.21      12.9  T
   7   -152.3976061 -0.247503E-07  0.388E-04    2.21      25.8  T
     SCC iter.                  ...        0 min,  0.965 sec
     gradient                   ...        0 min,  0.153 sec
 * total energy  :  -150.2030820 Eh     change       -0.4803973E-03 Eh
   gradient norm :     0.0065592 Eh/α   predicted    -0.4303728E-03 ( -10.41%)
   displ. norm   :     0.5364469 α      lambda       -0.4343464E-03
   maximum displ.:     0.3298176 α      in ANC's #7, #10, #5, ...

........................................................................
.............................. CYCLE   31 ..............................
........................................................................

 iter      E             dE          RMSdq      gap      omega  full diag
   1   -152.3979431 -0.152398E+03  0.103E-01    2.27       0.0  T
   2   -152.3979554 -0.122807E-04  0.466E-02    2.26       1.0  T
   3   -152.3979541  0.129841E-05  0.121E-02    2.26       1.0  T
   4   -152.3979558 -0.174954E-05  0.711E-03    2.26       1.4  T
   5   -152.3979579 -0.201292E-05  0.197E-03    2.26       5.1  T
   6   -152.3979581 -0.251187E-06  0.699E-04    2.26      14.3  T
   7   -152.3979581 -0.120009E-07  0.435E-04    2.26      23.0  T
     SCC iter.                  ...        0 min,  1.100 sec
     gradient                   ...        0 min,  0.132 sec
 * total energy  :  -150.2034034 Eh     change       -0.3214238E-03 Eh
   gradient norm :     0.0054967 Eh/α   predicted    -0.2796730E-03 ( -12.99%)
   displ. norm   :     0.5084725 α      lambda       -0.3697359E-03
   maximum displ.:     0.3081404 α      in ANC's #7, #10, #5, ...

........................................................................
.............................. CYCLE   32 ..............................
........................................................................

 iter      E             dE          RMSdq      gap      omega  full diag
   1   -152.4002796 -0.152400E+03  0.131E-01    2.26       0.0  T
   2   -152.4002982 -0.185927E-04  0.564E-02    2.26       1.0  T
   3   -152.4002990 -0.856654E-06  0.122E-02    2.26       1.0  T
   4   -152.4002991 -0.379476E-07  0.726E-03    2.26       1.4  T
   5   -152.4003018 -0.276423E-05  0.161E-03    2.26       6.2  T
   6   -152.4003019 -0.906705E-07  0.821E-04    2.26      12.2  T
   7   -152.4003019 -0.245093E-07  0.429E-04    2.26      23.3  T
     SCC iter.                  ...        0 min,  0.952 sec
     gradient                   ...        0 min,  0.127 sec
 * total energy  :  -150.2036569 Eh     change       -0.2535159E-03 Eh
   gradient norm :     0.0055495 Eh/α   predicted    -0.2326650E-03 (  -8.22%)
   displ. norm   :     0.4383011 α      lambda       -0.2746650E-03
   maximum displ.:     0.2598445 α      in ANC's #7, #10, #6, ...

........................................................................
.............................. CYCLE   33 ..............................
........................................................................

 iter      E             dE          RMSdq      gap      omega  full diag
   1   -152.4010403 -0.152401E+03  0.102E-01    2.28       0.0  T
   2   -152.4010514 -0.111208E-04  0.449E-02    2.28       1.0  T
   3   -152.4010517 -0.339387E-06  0.108E-02    2.28       1.0  T
   4   -152.4010520 -0.242852E-06  0.619E-03    2.28       1.6  T
   5   -152.4010536 -0.161603E-05  0.156E-03    2.28       6.4  T
   6   -152.4010536 -0.544056E-07  0.834E-04    2.28      12.0  T
   7   -152.4010536 -0.904069E-08  0.535E-04    2.28      18.7  T
     SCC iter.                  ...        0 min,  1.054 sec
     gradient                   ...        0 min,  0.124 sec
 * total energy  :  -150.2038523 Eh     change       -0.1953989E-03 Eh
   gradient norm :     0.0062577 Eh/α   predicted    -0.1637156E-03 ( -16.21%)
   displ. norm   :     0.3988571 α      lambda       -0.2610465E-03
   maximum displ.:     0.2147660 α      in ANC's #7, #10, #5, ...

........................................................................
.............................. CYCLE   34 ..............................
........................................................................

 iter      E             dE          RMSdq      gap      omega  full diag
   1   -152.4050726 -0.152405E+03  0.718E-02    2.35       0.0  T
   2   -152.4050777 -0.515562E-05  0.357E-02    2.34       1.0  T
   3   -152.4050760  0.172837E-05  0.104E-02    2.34       1.0  T
   4   -152.4050782 -0.223254E-05  0.548E-03    2.34       1.8  T
   5   -152.4050791 -0.905528E-06  0.131E-03    2.34       7.6  T
   6   -152.4050792 -0.461482E-07  0.695E-04    2.34      14.4  T
   7   -152.4050792 -0.100559E-07  0.471E-04    2.34      21.2  T
     SCC iter.                  ...        0 min,  1.349 sec
     gradient                   ...        0 min,  0.133 sec
 * total energy  :  -150.2040095 Eh     change       -0.1571697E-03 Eh
   gradient norm :     0.0078954 Eh/α   predicted    -0.1512890E-03 (  -3.74%)
   displ. norm   :     0.4799823 α      lambda       -0.2933817E-03
   maximum displ.:     0.2648812 α      in ANC's #7, #10, #6, ...

........................................................................
.............................. CYCLE   35 ..............................
........................................................................

 iter      E             dE          RMSdq      gap      omega  full diag
   1   -152.4002951 -0.152400E+03  0.117E-01    2.31       0.0  T
   2   -152.4003088 -0.136856E-04  0.520E-02    2.31       1.0  T
   3   -152.4003102 -0.146343E-05  0.116E-02    2.31       1.0  T
   4   -152.4003096  0.659658E-06  0.573E-03    2.31       1.7  T
   5   -152.4003112 -0.163715E-05  0.138E-03    2.31       7.2  T
   6   -152.4003112 -0.486924E-07  0.639E-04    2.31      15.6  T
   7   -152.4003112 -0.499722E-08  0.343E-04    2.31      29.2  T
     SCC iter.                  ...        0 min,  1.021 sec
     gradient                   ...        0 min,  0.149 sec
 * total energy  :  -150.2041961 Eh     change       -0.1866335E-03 Eh
   gradient norm :     0.0061880 Eh/α   predicted    -0.1804860E-03 (  -3.29%)
   displ. norm   :     0.3189127 α      lambda       -0.2232425E-03
   maximum displ.:     0.1310862 α      in ANC's #7, #14, #6, ...

........................................................................
.............................. CYCLE   36 ..............................
........................................................................

 iter      E             dE          RMSdq      gap      omega  full diag
   1   -152.4011122 -0.152401E+03  0.639E-02    2.30       0.0  T
   2   -152.4011166 -0.446744E-05  0.307E-02    2.30       1.0  T
   3   -152.4011167 -0.105066E-06  0.750E-03    2.30       1.3  T
   4   -152.4011167  0.587582E-07  0.396E-03    2.30       2.5  T
   5   -152.4011174 -0.761489E-06  0.102E-03    2.30       9.8  T
   6   -152.4011175 -0.305237E-07  0.513E-04    2.30      19.5  T
   7   -152.4011175 -0.292385E-08  0.321E-04    2.30      31.1  T
     SCC iter.                  ...        0 min,  0.998 sec
     gradient                   ...        0 min,  0.123 sec
 * total energy  :  -150.2043431 Eh     change       -0.1469982E-03 Eh
   gradient norm :     0.0061586 Eh/α   predicted    -0.1229766E-03 ( -16.34%)
   displ. norm   :     0.4037488 α      lambda       -0.2919892E-03
   maximum displ.:     0.1611728 α      in ANC's #14, #16, #6, ...

........................................................................
.............................. CYCLE   37 ..............................
........................................................................

 iter      E             dE          RMSdq      gap      omega  full diag
   1   -152.4036714 -0.152404E+03  0.552E-02    2.33       0.0  T
   2   -152.4036743 -0.293937E-05  0.312E-02    2.33       1.0  T
   3   -152.4036718  0.257263E-05  0.765E-03    2.33       1.3  T
   4   -152.4036747 -0.295847E-05  0.335E-03    2.33       3.0  T
   5   -152.4036752 -0.459227E-06  0.112E-03    2.33       8.9  T
   6   -152.4036752 -0.325956E-07  0.651E-04    2.33      15.4  T
   7   -152.4036752 -0.849772E-08  0.408E-04    2.33      24.5  T
     SCC iter.                  ...        0 min,  1.126 sec
     gradient                   ...        0 min,  0.156 sec
 * total energy  :  -150.2045061 Eh     change       -0.1629700E-03 Eh
   gradient norm :     0.0073871 Eh/α   predicted    -0.1697941E-03 (   4.19%)
   displ. norm   :     0.2899971 α      lambda       -0.1582542E-03
   maximum displ.:     0.1365279 α      in ANC's #7, #5, #6, ...

........................................................................
.............................. CYCLE   38 ..............................
........................................................................

 iter      E             dE          RMSdq      gap      omega  full diag
   1   -152.4006925 -0.152401E+03  0.435E-02    2.33       0.0  T
   2   -152.4006943 -0.182343E-05  0.230E-02    2.33       1.0  T
   3   -152.4006931  0.118062E-05  0.605E-03    2.33       1.7  T
   4   -152.4006941 -0.950416E-06  0.342E-03    2.33       2.9  T
   5   -152.4006947 -0.683016E-06  0.102E-03    2.33       9.8  T
   6   -152.4006948 -0.722553E-07  0.421E-04    2.33      23.8  T
   7   -152.4006948 -0.735466E-08  0.243E-04    2.33      41.1  T
     SCC iter.                  ...        0 min,  0.964 sec
     gradient                   ...        0 min,  0.140 sec
 * total energy  :  -150.2046167 Eh     change       -0.1105968E-03 Eh
   gradient norm :     0.0058742 Eh/α   predicted    -0.8578252E-04 ( -22.44%)
   displ. norm   :     0.2529699 α      lambda       -0.1404313E-03
   maximum displ.:     0.1162964 α      in ANC's #7, #5, #6, ...

........................................................................
.............................. CYCLE   39 ..............................
........................................................................

 iter      E             dE          RMSdq      gap      omega  full diag
   1   -152.4002362 -0.152400E+03  0.334E-02    2.33       0.0  T
   2   -152.4002378 -0.157183E-05  0.187E-02    2.33       1.0  T
   3   -152.4002363  0.154807E-05  0.587E-03    2.33       1.7  T
   4   -152.4002381 -0.181276E-05  0.237E-03    2.33       4.2  T
   5   -152.4002383 -0.227680E-06  0.878E-04    2.33      11.4  T
   6   -152.4002384 -0.485431E-07  0.389E-04    2.33      25.7  T
     SCC iter.                  ...        0 min,  1.053 sec
     gradient                   ...        0 min,  0.124 sec
 * total energy  :  -150.2047137 Eh     change       -0.9696161E-04 Eh
   gradient norm :     0.0035385 Eh/α   predicted    -0.7471171E-04 ( -22.95%)
   displ. norm   :     0.2162698 α      lambda       -0.8327416E-04
   maximum displ.:     0.1071502 α      in ANC's #7, #5, #6, ...

........................................................................
.............................. CYCLE   40 ..............................
........................................................................

 iter      E             dE          RMSdq      gap      omega  full diag
   1   -152.4001788 -0.152400E+03  0.262E-02    2.33       0.0  T
   2   -152.4001795 -0.683083E-06  0.148E-02    2.33       1.0  T
   3   -152.4001785  0.949862E-06  0.420E-03    2.33       2.4  T
   4   -152.4001796 -0.110386E-05  0.160E-03    2.33       6.3  T
   5   -152.4001797 -0.926007E-07  0.627E-04    2.33      15.9  T
   6   -152.4001797 -0.262653E-07  0.272E-04    2.33      36.8  T
     SCC iter.                  ...        0 min,  0.912 sec
     gradient                   ...        0 min,  0.146 sec
 * total energy  :  -150.2047741 Eh     change       -0.6048235E-04 Eh
   gradient norm :     0.0033345 Eh/α   predicted    -0.4358572E-04 ( -27.94%)
   displ. norm   :     0.2161306 α      lambda       -0.7168669E-04
   maximum displ.:     0.1006250 α      in ANC's #7, #5, #6, ...

........................................................................
.............................. CYCLE   41 ..............................
........................................................................

 iter      E             dE          RMSdq      gap      omega  full diag
   1   -152.4005487 -0.152401E+03  0.243E-02    2.33       0.0  T
   2   -152.4005490 -0.299948E-06  0.143E-02    2.33       1.0  T
   3   -152.4005487  0.390881E-06  0.267E-03    2.33       3.7  T
   4   -152.4005491 -0.479569E-06  0.931E-04    2.33      10.7  T
   5   -152.4005492 -0.180469E-07  0.539E-04    2.33      18.6  T
     SCC iter.                  ...        0 min,  0.737 sec
     gradient                   ...        0 min,  0.191 sec
 * total energy  :  -150.2048283 Eh     change       -0.5412464E-04 Eh
   gradient norm :     0.0036274 Eh/α   predicted    -0.3751918E-04 ( -30.68%)
   displ. norm   :     0.2280934 α      lambda       -0.6972589E-04
   maximum displ.:     0.1079105 α      in ANC's #5, #7, #6, ...

........................................................................
.............................. CYCLE   42 ..............................
........................................................................

 iter      E             dE          RMSdq      gap      omega  full diag
   1   -152.4012083 -0.152401E+03  0.268E-02    2.32       0.0  T
   2   -152.4012087 -0.436800E-06  0.156E-02    2.32       1.0  T
   3   -152.4012083  0.408287E-06  0.317E-03    2.32       3.2  T
   4   -152.4012088 -0.478186E-06  0.132E-03    2.32       7.6  T
   5   -152.4012088 -0.591845E-07  0.556E-04    2.32      18.0  T
   6   -152.4012088 -0.124085E-07  0.302E-04    2.32      33.1  T
     SCC iter.                  ...        0 min,  0.995 sec
     gradient                   ...        0 min,  0.135 sec
 * total energy  :  -150.2048786 Eh     change       -0.5036993E-04 Eh
   gradient norm :     0.0031398 Eh/α   predicted    -0.3668142E-04 ( -27.18%)
   displ. norm   :     0.1793399 α      lambda       -0.4585979E-04
   maximum displ.:     0.0854955 α      in ANC's #5, #7, #6, ...
 * RMSD in coord.:     0.7981420 α      energy gain  -0.9825201E-02 Eh

generating ANC from exact Hessian ...
Using Lindh-Hessian (1995)
 Shifting diagonal of input Hessian by    1.0159187418024164E-002
 Lowest  eigenvalues of input Hessian
    0.010000    0.000000    0.000000    0.000000    0.000000    0.000000
    0.000000    0.010173    0.010199    0.010288    0.010321    0.010327
    0.010444    0.010482    0.010646    0.010861    0.010927    0.011032
 Highest eigenvalues
    2.053011    2.122436    2.128419    2.146255    2.149802    2.286841


........................................................................
.............................. CYCLE   43 ..............................
........................................................................

 iter      E             dE          RMSdq      gap      omega  full diag
   1   -152.4015926 -0.152402E+03  0.243E-02    2.32       0.0  T
   2   -152.4015932 -0.604323E-06  0.130E-02    2.32       1.0  T
   3   -152.4015929  0.336473E-06  0.361E-03    2.32       2.8  T
   4   -152.4015932 -0.352410E-06  0.187E-03    2.32       5.4  T
   5   -152.4015934 -0.135655E-06  0.520E-04    2.32      19.2  T
   6   -152.4015934 -0.166035E-07  0.260E-04    2.32      38.4  T
     SCC iter.                  ...        0 min,  0.752 sec
     gradient                   ...        0 min,  0.160 sec
 * total energy  :  -150.2049118 Eh     change       -0.3312072E-04 Eh
   gradient norm :     0.0021485 Eh/α   predicted     0.0000000E+00 (-100.00%)
   displ. norm   :     0.0314416 α      lambda       -0.1694746E-04
   maximum displ.:     0.0135905 α      in ANC's #8, #2, #5, ...

........................................................................
.............................. CYCLE   44 ..............................
........................................................................

 iter      E             dE          RMSdq      gap      omega  full diag
   1   -152.4015615 -0.152402E+03  0.643E-03    2.31       0.0  T
   2   -152.4015616 -0.589969E-07  0.320E-03    2.31       3.1  T
   3   -152.4015616  0.284106E-07  0.111E-03    2.31       9.0  T
   4   -152.4015616 -0.431766E-07  0.544E-04    2.31      18.4  T
   5   -152.4015616 -0.512745E-08  0.165E-04    2.31      60.8  T
     SCC iter.                  ...        0 min,  0.540 sec
     gradient                   ...        0 min,  0.123 sec
 * total energy  :  -150.2049279 Eh     change       -0.1613392E-04 Eh
   gradient norm :     0.0011531 Eh/α   predicted    -0.9423403E-05 ( -41.59%)
   displ. norm   :     0.1929694 α      lambda       -0.5346825E-04
   maximum displ.:     0.0824932 α      in ANC's #8, #2, #5, ...

........................................................................
.............................. CYCLE   45 ..............................
........................................................................

 iter      E             dE          RMSdq      gap      omega  full diag
   1   -152.4015377 -0.152402E+03  0.362E-02    2.32       0.0  T
   2   -152.4015392 -0.150128E-05  0.168E-02    2.32       1.0  T
   3   -152.4015389  0.313777E-06  0.500E-03    2.32       2.0  T
   4   -152.4015393 -0.477235E-06  0.286E-03    2.31       3.5  T
   5   -152.4015396 -0.224737E-06  0.672E-04    2.32      14.9  T
   6   -152.4015396 -0.262175E-07  0.357E-04    2.32      28.0  T
     SCC iter.                  ...        0 min,  1.034 sec
     gradient                   ...        0 min,  0.168 sec
 * total energy  :  -150.2049651 Eh     change       -0.3722550E-04 Eh
   gradient norm :     0.0033760 Eh/α   predicted    -0.2717700E-04 ( -26.99%)
   displ. norm   :     0.0527449 α      lambda       -0.2101096E-04
   maximum displ.:     0.0255125 α      in ANC's #8, #2, #5, ...

........................................................................
.............................. CYCLE   46 ..............................
........................................................................

 iter      E             dE          RMSdq      gap      omega  full diag
   1   -152.4014840 -0.152401E+03  0.117E-02    2.30       0.0  T
   2   -152.4014841 -0.180161E-06  0.581E-03    2.30       1.7  T
   3   -152.4014841  0.331893E-07  0.204E-03    2.30       4.9  T
   4   -152.4014841 -0.286989E-07  0.120E-03    2.30       8.3  T
   5   -152.4014842 -0.494924E-07  0.610E-04    2.30      16.4  T
   6   -152.4014842 -0.928873E-08  0.313E-04    2.30      32.0  T
     SCC iter.                  ...        0 min,  0.964 sec
     gradient                   ...        0 min,  0.125 sec
 * total energy  :  -150.2049810 Eh     change       -0.1590329E-04 Eh
   gradient norm :     0.0028297 Eh/α   predicted    -0.1053597E-04 ( -33.75%)
   displ. norm   :     0.1257228 α      lambda       -0.4166116E-04
   maximum displ.:     0.0576438 α      in ANC's #8, #2, #5, ...

........................................................................
.............................. CYCLE   47 ..............................
........................................................................

 iter      E             dE          RMSdq      gap      omega  full diag
   1   -152.4017098 -0.152402E+03  0.228E-02    2.30       0.0  T
   2   -152.4017103 -0.496157E-06  0.103E-02    2.30       1.0  T
   3   -152.4017102  0.663909E-07  0.283E-03    2.30       3.5  T
   4   -152.4017102 -0.148298E-07  0.172E-03    2.30       5.8  T
   5   -152.4017104 -0.153986E-06  0.433E-04    2.30      23.1  T
   6   -152.4017104 -0.136662E-07  0.183E-04    2.30      54.7  T
     SCC iter.                  ...        0 min,  1.043 sec
     gradient                   ...        0 min,  0.128 sec
 * total energy  :  -150.2050108 Eh     change       -0.2978281E-04 Eh
   gradient norm :     0.0014613 Eh/α   predicted    -0.2116083E-04 ( -28.95%)
   displ. norm   :     0.2140304 α      lambda       -0.2604190E-04
   maximum displ.:     0.0999944 α      in ANC's #8, #2, #5, ...

........................................................................
.............................. CYCLE   48 ..............................
........................................................................

 iter      E             dE          RMSdq      gap      omega  full diag
   1   -152.4016902 -0.152402E+03  0.400E-02    2.30       0.0  T
   2   -152.4016917 -0.148299E-05  0.173E-02    2.30       1.0  T
   3   -152.4016917  0.195905E-08  0.444E-03    2.30       2.3  T
   4   -152.4016916  0.103915E-06  0.271E-03    2.30       3.7  T
   5   -152.4016920 -0.388168E-06  0.579E-04    2.30      17.3  T
   6   -152.4016920 -0.189060E-07  0.275E-04    2.30      36.4  T
     SCC iter.                  ...        0 min,  0.849 sec
     gradient                   ...        0 min,  0.155 sec
 * total energy  :  -150.2050353 Eh     change       -0.2448986E-04 Eh
   gradient norm :     0.0021162 Eh/α   predicted    -0.1328789E-04 ( -45.74%)
   displ. norm   :     0.0929063 α      lambda       -0.1653440E-04
   maximum displ.:     0.0444987 α      in ANC's #8, #2, #5, ...

........................................................................
.............................. CYCLE   49 ..............................
........................................................................

 iter      E             dE          RMSdq      gap      omega  full diag
   1   -152.4018065 -0.152402E+03  0.174E-02    2.30       0.0  T
   2   -152.4018067 -0.284908E-06  0.736E-03    2.30       1.4  T
   3   -152.4018067  0.190229E-08  0.190E-03    2.30       5.3  T
   4   -152.4018067  0.708314E-08  0.116E-03    2.30       8.6  T
   5   -152.4018068 -0.681172E-07  0.210E-04    2.30      47.6  T
   6   -152.4018068 -0.102017E-08  0.120E-04    2.30      83.0  T
     SCC iter.                  ...        0 min,  1.053 sec
     gradient                   ...        0 min,  0.143 sec
 * total energy  :  -150.2050500 Eh     change       -0.1467400E-04 Eh
   gradient norm :     0.0016934 Eh/α   predicted    -0.8345039E-05 ( -43.13%)
   displ. norm   :     0.3203839 α      lambda       -0.3852855E-04
   maximum displ.:     0.1548015 α      in ANC's #8, #2, #5, ...

........................................................................
.............................. CYCLE   50 ..............................
........................................................................

 iter      E             dE          RMSdq      gap      omega  full diag
   1   -152.4020039 -0.152402E+03  0.623E-02    2.29       0.0  T
   2   -152.4020077 -0.378297E-05  0.264E-02    2.29       1.0  T
   3   -152.4020076  0.115866E-06  0.674E-03    2.29       1.5  T
   4   -152.4020078 -0.210812E-06  0.409E-03    2.29       2.4  T
   5   -152.4020085 -0.703230E-06  0.760E-04    2.29      13.2  T
   6   -152.4020085 -0.190199E-07  0.453E-04    2.29      22.1  T
     SCC iter.                  ...        0 min,  1.010 sec
     gradient                   ...        0 min,  0.119 sec
 * total energy  :  -150.2050838 Eh     change       -0.3385189E-04 Eh
   gradient norm :     0.0019589 Eh/α   predicted    -0.2014618E-04 ( -40.49%)
   displ. norm   :     0.1595915 α      lambda       -0.1432761E-04
   maximum displ.:     0.0772253 α      in ANC's #8, #2, #5, ...

........................................................................
.............................. CYCLE   51 ..............................
........................................................................

 iter      E             dE          RMSdq      gap      omega  full diag
   1   -152.4019426 -0.152402E+03  0.244E-02    2.30       0.0  T
   2   -152.4019431 -0.558073E-06  0.110E-02    2.30       1.0  T
   3   -152.4019431  0.126811E-07  0.314E-03    2.30       3.2  T
   4   -152.4019431  0.592467E-07  0.180E-03    2.30       5.6  T
   5   -152.4019433 -0.179377E-06  0.593E-04    2.30      16.9  T
   6   -152.4019433 -0.127769E-07  0.307E-04    2.30      32.6  T
     SCC iter.                  ...        0 min,  0.814 sec
     gradient                   ...        0 min,  0.164 sec
 * total energy  :  -150.2050968 Eh     change       -0.1293905E-04 Eh
   gradient norm :     0.0017475 Eh/α   predicted    -0.7249032E-05 ( -43.98%)
   displ. norm   :     0.1711348 α      lambda       -0.1757806E-04
   maximum displ.:     0.0870161 α      in ANC's #2, #8, #5, ...

........................................................................
.............................. CYCLE   52 ..............................
........................................................................

 iter      E             dE          RMSdq      gap      omega  full diag
   1   -152.4020497 -0.152402E+03  0.277E-02    2.29       0.0  T
   2   -152.4020505 -0.743965E-06  0.121E-02    2.29       1.0  T
   3   -152.4020504  0.834132E-07  0.314E-03    2.29       3.2  T
   4   -152.4020504 -0.336720E-07  0.190E-03    2.29       5.3  T
   5   -152.4020506 -0.198434E-06  0.459E-04    2.29      21.8  T
   6   -152.4020506 -0.171481E-07  0.174E-04    2.29      57.5  T
     SCC iter.                  ...        0 min,  0.846 sec
     gradient                   ...        0 min,  0.152 sec
 * total energy  :  -150.2051158 Eh     change       -0.1908325E-04 Eh
   gradient norm :     0.0009695 Eh/α   predicted    -0.8904029E-05 ( -53.34%)
   displ. norm   :     0.1543667 α      lambda       -0.1409903E-04
   maximum displ.:     0.0785598 α      in ANC's #2, #8, #5, ...

........................................................................
.............................. CYCLE   53 ..............................
........................................................................

 iter      E             dE          RMSdq      gap      omega  full diag
   1   -152.4020774 -0.152402E+03  0.187E-02    2.29       0.0  T
   2   -152.4020777 -0.258617E-06  0.931E-03    2.29       1.1  T
   3   -152.4020776  0.682532E-07  0.256E-03    2.29       3.9  T
   4   -152.4020776 -0.131622E-07  0.139E-03    2.29       7.2  T
   5   -152.4020777 -0.113915E-06  0.321E-04    2.29      31.1  T
   6   -152.4020777 -0.105085E-07  0.120E-04    2.29      83.2  T
     SCC iter.                  ...        0 min,  0.975 sec
     gradient                   ...        0 min,  0.175 sec
 * total energy  :  -150.2051320 Eh     change       -0.1619598E-04 Eh
   gradient norm :     0.0009796 Eh/α   predicted    -0.7124496E-05 ( -56.01%)
   displ. norm   :     0.1906139 α      lambda       -0.1473071E-04
   maximum displ.:     0.0978127 α      in ANC's #2, #8, #5, ...

........................................................................
.............................. CYCLE   54 ..............................
........................................................................

 iter      E             dE          RMSdq      gap      omega  full diag
   1   -152.4017399 -0.152402E+03  0.202E-02    2.29       0.0  T
   2   -152.4017401 -0.207854E-06  0.109E-02    2.28       1.0  T
   3   -152.4017400  0.613039E-07  0.245E-03    2.28       4.1  T
   4   -152.4017401 -0.315321E-07  0.120E-03    2.28       8.3  T
   5   -152.4017401 -0.823009E-07  0.347E-04    2.28      28.8  T
   6   -152.4017401 -0.103053E-07  0.154E-04    2.28      65.1  T
     SCC iter.                  ...        0 min,  1.044 sec
     gradient                   ...        0 min,  0.148 sec
 * total energy  :  -150.2051490 Eh     change       -0.1697643E-04 Eh
   gradient norm :     0.0013587 Eh/α   predicted    -0.7486676E-05 ( -55.90%)
   displ. norm   :     0.2192493 α      lambda       -0.1509497E-04
   maximum displ.:     0.1132912 α      in ANC's #2, #8, #5, ...

........................................................................
.............................. CYCLE   55 ..............................
........................................................................

 iter      E             dE          RMSdq      gap      omega  full diag
   1   -152.4016512 -0.152402E+03  0.214E-02    2.29       0.0  T
   2   -152.4016513 -0.180611E-06  0.122E-02    2.29       1.0  T
   3   -152.4016512  0.157103E-06  0.217E-03    2.29       4.6  T
   4   -152.4016513 -0.134460E-06  0.109E-03    2.29       9.2  T
   5   -152.4016514 -0.887980E-07  0.270E-04    2.29      37.1  T
   6   -152.4016514 -0.428545E-08  0.143E-04    2.29      70.1  T
     SCC iter.                  ...        0 min,  0.880 sec
     gradient                   ...        0 min,  0.125 sec
 * total energy  :  -150.2051667 Eh     change       -0.1770337E-04 Eh
   gradient norm :     0.0014052 Eh/α   predicted    -0.7713394E-05 ( -56.43%)
   displ. norm   :     0.2523686 α      lambda       -0.1670618E-04
   maximum displ.:     0.1330637 α      in ANC's #2, #8, #5, ...

........................................................................
.............................. CYCLE   56 ..............................
........................................................................

 iter      E             dE          RMSdq      gap      omega  full diag
   1   -152.4015149 -0.152402E+03  0.239E-02    2.29       0.0  T
   2   -152.4015151 -0.231682E-06  0.137E-02    2.29       1.0  T
   3   -152.4015148  0.353437E-06  0.235E-03    2.29       4.3  T
   4   -152.4015152 -0.390885E-06  0.106E-03    2.29       9.5  T
   5   -152.4015152 -0.660067E-07  0.314E-04    2.29      31.9  T
   6   -152.4015152 -0.553527E-08  0.174E-04    2.29      57.5  T
     SCC iter.                  ...        0 min,  0.977 sec
     gradient                   ...        0 min,  0.140 sec
 * total energy  :  -150.2051860 Eh     change       -0.1932654E-04 Eh
   gradient norm :     0.0012193 Eh/α   predicted    -0.8590622E-05 ( -55.55%)
   displ. norm   :     0.2768136 α      lambda       -0.1780668E-04
   maximum displ.:     0.1489840 α      in ANC's #2, #5, #8, ...

[...]
    56   1 H        0.925     0.069     2.101     2.267
    57   1 H        0.926     0.051     2.306     2.375
    58   1 H        0.926     0.042     2.424     2.435
    59   1 H        0.926     0.059     2.209     2.324
    60   1 H        0.926     0.058     2.219     2.329
    61   1 H        0.926     0.056     2.244     2.342
    62   1 H        0.926     0.060     2.198     2.319
    63   1 H        0.926     0.058     2.223     2.331
    64   1 H        0.925     0.069     2.102     2.267
    65   1 H        0.924     0.055     2.256     2.349
    66   1 H        0.924     0.052     2.298     2.371
    67   1 H        0.926     0.057     2.240     2.341
    68   1 H        0.924     0.045     2.378     2.412
    69   1 H        0.925     0.058     2.217     2.328
    70   1 H        0.925     0.063     2.167     2.302
    71   1 H        0.925     0.057     2.229     2.335
    72   1 H        0.925     0.059     2.215     2.327
    73   1 H        0.925     0.072     2.062     2.246
    74   1 H        0.924     0.044     2.398     2.422
    75   1 H        0.924     0.067     2.116     2.275
    76   1 H        0.925     0.047     2.359     2.402
    77   1 H        0.925     0.060     2.196     2.317
    78   1 H        0.925     0.059     2.214     2.327
    79   1 H        0.925     0.051     2.304     2.374
    80   1 H        0.925     0.047     2.354     2.399
    81   1 H        0.925     0.065     2.142     2.289
    82   1 H        0.925     0.050     2.318     2.381
    83   1 H        0.926     0.062     2.174     2.306
    84   1 H        0.924     0.043     2.413     2.429
    85   1 H        0.924     0.050     2.326     2.385
    86   1 H        0.925     0.074     2.042     2.235
    87   1 H        0.926     0.046     2.371     2.408
    88   1 H        0.926     0.037     2.495     2.470
    89   1 H        0.926     0.063     2.159     2.298
    90   1 H        0.926     0.062     2.177     2.307
    91   1 H        0.925     0.051     2.310     2.377
    92   1 H        0.924     0.038     2.474     2.460
    93   1 H        0.925     0.058     2.226     2.333
    94   1 H        0.924     0.061     2.193     2.316
    95   1 H        0.925     0.051     2.310     2.377
    96   1 H        0.924     0.042     2.421     2.433
    97   1 H        0.925     0.060     2.201     2.320
    98   1 H        0.924     0.061     2.190     2.314
    99   1 H        0.926     0.039     2.466     2.456
   100   1 H        0.926     0.046     2.366     2.406

 Mol. C6AA /au·bohr⁶  :     128818.389210
 Mol. C8AA /au·bohr⁸  :    3474089.438136
 Mol. α(0) /au        :        567.657597


Wiberg/Mayer (AO) data.
largest (>0.10) Wiberg bond orders for each atom

 ---------------------------------------------------------------------------
     #   Z sym  total        # sym  WBO       # sym  WBO       # sym  WBO
 ---------------------------------------------------------------------------
     1   6 C    3.939 --    56 H    0.979     2 O    0.978    55 H    0.977
                            54 H    0.976
     2   8 O    2.239 --     3 C    1.077     1 C    0.978
     3   6 C    3.932 --    53 C    1.364     4 C    1.337     2 O    1.077
     4   6 C    3.988 --     5 C    1.485     3 C    1.337    57 H    0.963
                            52 C    0.103
     5   6 C    3.990 --     4 C    1.485     6 C    1.360    58 H    0.967
     6   6 C    3.987 --    52 C    1.384     5 C    1.360     7 C    1.057
     7   6 C    3.984 --     8 C    1.387    12 C    1.331     6 C    1.057
     8   6 C    3.982 --     9 C    1.438     7 C    1.387    59 H    0.964
                            11 C    0.100
     9   6 C    3.987 --     8 C    1.438    10 C    1.426    60 H    0.966
    10   6 C    3.977 --     9 C    1.426    11 C    1.348    49 C    1.016
    11   6 C    3.982 --    12 C    1.407    10 C    1.348    47 C    0.988
                             8 C    0.100
    12   6 C    3.877 --    11 C    1.407     7 C    1.331    13 O    0.882
    13   8 O    2.398 --    14 P    1.271    12 C    0.882
    14  15 P    5.026 --    32 O    1.304    13 O    1.271    25 N    1.215
                            15 Se   0.903
    15  34 Se   2.620 --    16 S    1.301    14 P    0.903
    16  16 S    2.492 --    15 Se   1.301    17 C    0.970
    17   6 C    3.953 --    24 C    1.439    18 C    1.374    16 S    0.970
    18   6 C    3.983 --    19 C    1.443    17 C    1.374    61 H    0.966
    19   6 C    3.985 --    18 C    1.443    20 C    1.434    62 H    0.967
                            24 C    0.102
    20   6 C    3.981 --    19 C    1.434    21 C    1.365    63 H    0.964
    21   6 C    3.941 --    20 C    1.365    24 C    1.336    22 O    1.084
    22   8 O    2.249 --    21 C    1.084    23 C    0.974
    23   6 C    3.935 --    64 H    0.979    66 H    0.976    65 H    0.976
                            22 O    0.974
    24   6 C    3.983 --    17 C    1.439    21 C    1.336    67 H    0.941
                            19 C    0.102
    25   7 N    3.371 --    14 P    1.215    26 C    0.944    29 C    0.939
    26   6 C    3.960 --    28 C    1.006    27 C    1.003    25 N    0.944
                            68 H    0.939
    27   6 C    3.988 --    26 C    1.003    70 H    0.980    71 H    0.979
                            69 H    0.974
    28   6 C    3.991 --    26 C    1.006    72 H    0.980    73 H    0.979
                            74 H    0.966
    29   6 C    3.954 --    31 C    1.007    30 C    1.004    75 H    0.952
                            25 N    0.939
    30   6 C    3.990 --    29 C    1.004    78 H    0.982    76 H    0.981
                            77 H    0.974
    31   6 C    3.990 --    29 C    1.007    80 H    0.983    81 H    0.980
                            79 H    0.976
    32   8 O    2.407 --    14 P    1.304    33 C    0.880
    33   6 C    3.873 --    46 C    1.408    34 C    1.334    32 O    0.880
    34   6 C    3.984 --    43 C    1.398    33 C    1.334    35 C    1.035
    35   6 C    3.987 --    42 C    1.394    36 C    1.357    34 C    1.035
    36   6 C    3.990 --    37 C    1.483    35 C    1.357    82 H    0.956
    37   6 C    3.986 --    36 C    1.483    38 C    1.333    83 H    0.966
                            42 C    0.103
    38   6 C    3.935 --    41 C    1.363    37 C    1.333    39 O    1.089
    39   8 O    2.256 --    38 C    1.089    40 C    0.978
    40   6 C    3.939 --    86 H    0.978    39 O    0.978    84 H    0.977
                            85 H    0.976
    41   6 C    3.986 --    42 C    1.446    38 C    1.363    87 H    0.965
    42   6 C    3.990 --    41 C    1.446    35 C    1.394    88 H    0.967
                            37 C    0.103
    43   6 C    3.982 --    44 C    1.432    34 C    1.398    89 H    0.966
                            46 C    0.101
    44   6 C    3.987 --    43 C    1.432    45 C    1.431    90 H    0.966
    45   6 C    3.980 --    44 C    1.431    46 C    1.347    51 C    1.016
    46   6 C    3.982 --    33 C    1.408    45 C    1.347    47 C    0.990
                            43 C    0.101
    47   6 C    3.987 --    46 C    0.990    11 C    0.988    48 C    0.957
                            50 C    0.956
    48   6 C    3.993 --    49 C    1.003    92 H    0.979    91 H    0.977
                            47 C    0.957
    49   6 C    3.994 --    10 C    1.016    48 C    1.003    93 H    0.966
                            94 H    0.956
    50   6 C    3.993 --    51 C    1.002    96 H    0.979    95 H    0.977
                            47 C    0.956
    51   6 C    3.994 --    45 C    1.016    50 C    1.002    97 H    0.966
                            98 H    0.956
    52   6 C    3.990 --    53 C    1.449     6 C    1.384    99 H    0.966
                             4 C    0.103
    53   6 C    3.987 --    52 C    1.449     3 C    1.364   100 H    0.965
    54   1 H    0.998 --     1 C    0.976
    55   1 H    0.997 --     1 C    0.977
    56   1 H    0.995 --     1 C    0.979
    57   1 H    0.997 --     4 C    0.963
    58   1 H    0.998 --     5 C    0.967
    59   1 H    0.995 --     8 C    0.964
    60   1 H    0.995 --     9 C    0.966
    61   1 H    0.997 --    18 C    0.966
    62   1 H    0.995 --    19 C    0.967
    63   1 H    0.995 --    20 C    0.964
    64   1 H    0.995 --    23 C    0.979
    65   1 H    0.997 --    23 C    0.976
    66   1 H    0.997 --    23 C    0.976
    67   1 H    0.997 --    24 C    0.941
    68   1 H    0.998 --    26 C    0.939
    69   1 H    0.996 --    27 C    0.974
    70   1 H    0.995 --    27 C    0.980
    71   1 H    0.996 --    27 C    0.979
    72   1 H    0.996 --    28 C    0.980
    73   1 H    0.994 --    28 C    0.979
    74   1 H    0.998 --    28 C    0.966
    75   1 H    0.991 --    29 C    0.952
    76   1 H    0.998 --    30 C    0.981
    77   1 H    0.996 --    30 C    0.974
    78   1 H    0.996 --    30 C    0.982
    79   1 H    0.997 --    31 C    0.976
    80   1 H    0.998 --    31 C    0.983
    81   1 H    0.995 --    31 C    0.980
    82   1 H    0.997 --    36 C    0.956
    83   1 H    0.996 --    37 C    0.966
    84   1 H    0.998 --    40 C    0.977
    85   1 H    0.997 --    40 C    0.976
    86   1 H    0.994 --    40 C    0.978
    87   1 H    0.997 --    41 C    0.965
    88   1 H    0.999 --    42 C    0.967
    89   1 H    0.995 --    43 C    0.966
    90   1 H    0.995 --    44 C    0.966
    91   1 H    0.997 --    48 C    0.977
    92   1 H    0.999 --    48 C    0.979
    93   1 H    0.995 --    49 C    0.966
    94   1 H    0.995 --    49 C    0.956
    95   1 H    0.997 --    50 C    0.977
    96   1 H    0.998 --    50 C    0.979
    97   1 H    0.995 --    51 C    0.966
    98   1 H    0.995 --    51 C    0.956
    99   1 H    0.998 --    52 C    0.966
   100   1 H    0.997 --    53 C    0.965
 ---------------------------------------------------------------------------

Topologies differ in total number of bonds
Writing topology from bond orders to xtbtopo.mol

molecular dipole:
                 x           y           z       tot (Debye)
 q only:       -0.527      -0.247      -0.566
   full:       -0.821      -0.420      -0.931       3.330
molecular quadrupole (traceless):
                xx          xy          yy          xz          yz          zz
 q only:       -7.201     -21.029       4.307     -18.296      10.402       2.894
  q+dip:       -6.509     -25.669       4.430     -18.184      11.165       2.079
   full:       -6.852     -25.955       6.318     -17.913      10.644       0.534

           -------------------------------------------------
          |                Geometry Summary                 |
           -------------------------------------------------

      molecular mass/u    :      811.8472606
   center of mass at/Å    :        0.2591848       0.1618491       0.3877016
  moments of inertia/u·Å² :        0.7768282E+04   0.1093274E+05   0.1311423E+05
rotational constants/cm⁻¹ :        0.2170059E-02   0.1541941E-02   0.1285446E-02

 * 95 selected distances

     #   Z          #   Z                                           value/Å
     1   6 C        2   8 O                                       1.4110849
     2   8 O        3   6 C                                       1.3561603
     3   6 C        4   6 C                                       1.3967931
     4   6 C        5   6 C                                       1.3753257
     5   6 C        6   6 C                                       1.3964540
     7   6 C        8   6 C                                       1.3953074
     8   6 C        9   6 C                                       1.3836666
     9   6 C       10   6 C                                       1.3791835
    10   6 C       11   6 C                                       1.3972132
     7   6 C       12   6 C                                       1.4014431
    11   6 C       12   6 C                                       1.3806508
    13   8 O       14  15 P                                       1.5883045
    15  34 Se      16  16 S                                       2.1442050 (max)
    17   6 C       18   6 C                                       1.3892222
    18   6 C       19   6 C                                       1.3819951
    19   6 C       20   6 C                                       1.3858416
    20   6 C       21   6 C                                       1.3918530
    21   6 C       22   8 O                                       1.3536707
    22   8 O       23   6 C                                       1.4128022
    17   6 C       24   6 C                                       1.3760574
    21   6 C       24   6 C                                       1.3968667
    14  15 P       25   7 N                                       1.6460409
    25   7 N       26   6 C                                       1.4737498
    26   6 C       27   6 C                                       1.5243712
    26   6 C       28   6 C                                       1.5256809
    25   7 N       29   6 C                                       1.4684892
    29   6 C       30   6 C                                       1.5244093
    29   6 C       31   6 C                                       1.5244960
    14  15 P       32   8 O                                       1.5798895
    33   6 C       34   6 C                                       1.4000213
    35   6 C       36   6 C                                       1.3962907
    36   6 C       37   6 C                                       1.3760544
    37   6 C       38   6 C                                       1.3989340
    38   6 C       39   8 O                                       1.3517650
    39   8 O       40   6 C                                       1.4097915
    38   6 C       41   6 C                                       1.3926874
    35   6 C       42   6 C                                       1.3894011
    41   6 C       42   6 C                                       1.3830888
    34   6 C       43   6 C                                       1.3918757
    43   6 C       44   6 C                                       1.3854915
    44   6 C       45   6 C                                       1.3796922
    33   6 C       46   6 C                                       1.3776532
    45   6 C       46   6 C                                       1.3972868
    48   6 C       49   6 C                                       1.5336717
    50   6 C       51   6 C                                       1.5343937
     6   6 C       52   6 C                                       1.3928250
     3   6 C       53   6 C                                       1.3916996
    52   6 C       53   6 C                                       1.3835500
     1   6 C       54   1 H                                       1.0945079
     1   6 C       55   1 H                                       1.0933099
     1   6 C       56   1 H                                       1.0886054
     4   6 C       57   1 H                                       1.0769909 (min)
     5   6 C       58   1 H                                       1.0790449
     8   6 C       59   1 H                                       1.0784543
     9   6 C       60   1 H                                       1.0787365
    18   6 C       61   1 H                                       1.0777877
    19   6 C       62   1 H                                       1.0788602
    20   6 C       63   1 H                                       1.0770800
    23   6 C       64   1 H                                       1.0885395
    23   6 C       65   1 H                                       1.0937799
    23   6 C       66   1 H                                       1.0932075
    24   6 C       67   1 H                                       1.0801524
    26   6 C       68   1 H                                       1.0992561
    27   6 C       69   1 H                                       1.0851851
    27   6 C       70   1 H                                       1.0865535
    27   6 C       71   1 H                                       1.0871016
    28   6 C       72   1 H                                       1.0870800
    28   6 C       73   1 H                                       1.0872420
    28   6 C       74   1 H                                       1.0914910
    29   6 C       75   1 H                                       1.0921689
    30   6 C       76   1 H                                       1.0866280
    30   6 C       77   1 H                                       1.0837874
    30   6 C       78   1 H                                       1.0873244
    31   6 C       79   1 H                                       1.0867368
    31   6 C       80   1 H                                       1.0874469
    31   6 C       81   1 H                                       1.0867206
    36   6 C       82   1 H                                       1.0816396
    37   6 C       83   1 H                                       1.0779861
    40   6 C       84   1 H                                       1.0946103
    40   6 C       85   1 H                                       1.0938042
    40   6 C       86   1 H                                       1.0882638
    41   6 C       87   1 H                                       1.0781747
    42   6 C       88   1 H                                       1.0807508
    43   6 C       89   1 H                                       1.0786503
    44   6 C       90   1 H                                       1.0786886
    48   6 C       91   1 H                                       1.0870302
    48   6 C       92   1 H                                       1.0920178
    49   6 C       93   1 H                                       1.0896774
    49   6 C       94   1 H                                       1.0920986
    50   6 C       95   1 H                                       1.0870385
    50   6 C       96   1 H                                       1.0917851
    51   6 C       97   1 H                                       1.0893122
    51   6 C       98   1 H                                       1.0922430
    52   6 C       99   1 H                                       1.0806327
    53   6 C      100   1 H                                       1.0782339

 * 7 distinct bonds (by element types)

   Z      Z             #   av. dist./Å        max./Å        min./Å
   1 H    6 C          47     1.0860940     1.0992561     1.0769909
   6 C    6 C          36     1.4119847     1.5343937     1.3753257
   6 C    7 N           2     1.4711195     1.4737498     1.4684892
   6 C    8 O           6     1.3825458     1.4128022     1.3517650
   7 N   15 P           1     1.6460409     1.6460409     1.6460409
   8 O   15 P           2     1.5840970     1.5883045     1.5798895
  16 S   34 Se          1     2.1442050     2.1442050     2.1442050


optimized geometry written to: xtbopt.xyz


           -------------------------------------------------
          | TOTAL ENERGY             -150.217796792695 Eh   |
          | GRADIENT NORM               0.000021758342 Eh/α |
          | HOMO-LUMO GAP               2.702554201375 eV   |
           -------------------------------------------------

------------------------------------------------------------------------
 * finished run on 2024/12/16 at 21:43:15.098     
------------------------------------------------------------------------
 total:
 * wall-time:     0 d,  0 h,  5 min, 40.750 sec
 *  cpu-time:     0 d,  0 h, 44 min, 26.218 sec
 * ratio c/w:     7.825 speedup
 SCF:
 * wall-time:     0 d,  0 h,  0 min,  2.600 sec
 *  cpu-time:     0 d,  0 h,  0 min, 20.550 sec
 * ratio c/w:     7.903 speedup
 ANC optimizer:
 * wall-time:     0 d,  0 h,  5 min, 37.981 sec
 *  cpu-time:     0 d,  0 h, 44 min,  4.379 sec
 * ratio c/w:     7.824 speedup

