      -----------------------------------------------------------      
     |                   =====================                   |     
     |                           x T B                           |     
     |                   =====================                   |     
     |                         S. Grimme                         |     
     |          Mulliken Center for Theoretical Chemistry        |     
     |                    University of Bonn                     |     
      -----------------------------------------------------------      

   * xtb version 6.7.1 (edcfbbe) compiled by 'conda@3ef47c1a292c' on 2024-11-25

   xtb is free software: you can redistribute it and/or modify it under
   the terms of the GNU Lesser General Public License as published by
   the Free Software Foundation, either version 3 of the License, or
   (at your option) any later version.
   
   xtb is distributed in the hope that it will be useful,
   but WITHOUT ANY WARRANTY; without even the implied warranty of
   MERCHANTABILITY or FITNESS FOR A PARTICULAR PURPOSE.  See the
   GNU Lesser General Public License for more details.
   
   Cite this work as:
   * C. Bannwarth, E. Caldeweyher, S. Ehlert, A. Hansen, P. Pracht,
     J. Seibert, S. Spicher, S. Grimme, WIREs Comput. Mol. Sci., 2020, 11,
     e01493. DOI: 10.1002/wcms.1493
   
   for GFN2-xTB:
   * C. Bannwarth, S. Ehlert and S. Grimme., J. Chem. Theory Comput., 2019,
     15, 1652-1671. DOI: 10.1021/acs.jctc.8b01176
   for GFN1-xTB:
   * S. Grimme, C. Bannwarth, P. Shushkov, J. Chem. Theory Comput., 2017,
     13, 1989-2009. DOI: 10.1021/acs.jctc.7b00118
   for GFN0-xTB:
   * P. Pracht, E. Caldeweyher, S. Ehlert, S. Grimme, ChemRxiv, 2019, preprint.
     DOI: 10.26434/chemrxiv.8326202.v1
   for GFN-FF:
   * S. Spicher and S. Grimme, Angew. Chem. Int. Ed., 2020, 59, 15665-15673.
     DOI: 10.1002/anie.202004239
   
   for ALPB and GBSA implicit solvation:
   * S. Ehlert, M. Stahn, S. Spicher, S. Grimme, J. Chem. Theory Comput.,
     2021, 17, 4250-4261. DOI: 10.1021/acs.jctc.1c00471
   
   for ddCOSMO and CPCM-X implicit solvation:
   * M. Stahn, S. Ehlert, S. Grimme, J. Phys. Chem. A,
     2023, XX, XXXX-XXXX. DOI: 10.1021/acs.jpca.3c04382
   
   for DFT-D4:
   * E. Caldeweyher, C. Bannwarth and S. Grimme, J. Chem. Phys., 2017,
     147, 034112. DOI: 10.1063/1.4993215
   * E. Caldeweyher, S. Ehlert, A. Hansen, H. Neugebauer, S. Spicher,
     C. Bannwarth and S. Grimme, J. Chem. Phys., 2019, 150, 154122.
     DOI: 10.1063/1.5090222
   * E. Caldeweyher, J.-M. Mewes, S. Ehlert and S. Grimme, Phys. Chem. Chem. Phys.
     2020, 22, 8499-8512. DOI: 10.1039/D0CP00502A
   
   for sTDA-xTB:
   * S. Grimme and C. Bannwarth, J. Chem. Phys., 2016, 145, 054103.
     DOI: 10.1063/1.4959605
   
   in the mass-spec context:
   * V. Asgeirsson, C. Bauer and S. Grimme, Chem. Sci., 2017, 8, 4879.
     DOI: 10.1039/c7sc00601b
   * J. Koopman and S. Grimme, ACS Omega 2019, 4, 12, 15120-15133.
     DOI: 10.1021/acsomega.9b02011
   
   for metadynamics refer to:
   * S. Grimme, J. Chem. Theory Comput., 2019, 155, 2847-2862
     DOI: 10.1021/acs.jctc.9b00143
   
   for SPH calculations refer to:
   * S. Spicher and S. Grimme, J. Chem. Theory Comput., 2021, 17, 1701-1714
     DOI: 10.1021/acs.jctc.0c01306
   
   for ONIOM refer to:
   * C. Plett, A. Katbashev, S. Ehlert, S. Grimme, M. Bursch,
     Phys. Chem. Chem. Phys., 2023, 25, 17860-17868. DOI: 10.1039/D3CP02178E
   
   for DIPRO refer to:
   * J. Kohn, N. Gildemeister, S. Grimme, D. Fazzi, A. Hansen,
     J. Chem. Phys., 2023, just accepted.
   
   for PTB refer to:
   * S. Grimme, M. Mueller, A. Hansen, J. Chem. Phys., 2023, 158, 124111.
     DOI: 10.1063/5.0137838
   
   with help from (in alphabetical order)
   P. Atkinson, C. Bannwarth, F. Bohle, G. Brandenburg, E. Caldeweyher
   M. Checinski, S. Dohm, S. Ehlert, S. Ehrlich, I. Gerasimov, C. Hölzer
   A. Katbashev, J. Kohn, J. Koopman, C. Lavigne, S. Lehtola, F. März, M. Müller,
   F. Musil, H. Neugebauer, J. Pisarek, C. Plett, P. Pracht, F. Pultar,
   J. Seibert, P. Shushkov, S. Spicher, M. Stahn, M. Steiner, T. Strunk,
   J. Stückrath, T. Rose, and J. Unsleber
   
 * started run on 2024/12/16 at 16:17:00.360     
   ID    Z sym.   atoms
    1    6 C      1-3, 5-7, 11-17, 22-39, 41
    2    7 N      4, 21, 40
    3   15 P      8
    4   16 S      9, 10
    5    9 F      18-20
    6    1 H      42-79

           -------------------------------------------------
          |                Calculation Setup                |
           -------------------------------------------------

          program call               : xtb --gfn2 --opt extreme -P 8 --charge 1 molecule.xyz
          hostname                   : node05
          coordinate file            : molecule.xyz
          omp threads                :                     8


           -------------------------------------------------
          |                 G F N 2 - x T B                 |
           -------------------------------------------------

        Reference                      10.1021/acs.jctc.8b01176
      * Hamiltonian:
        H0-scaling (s, p, d)           1.850000    2.230000    2.230000
        zeta-weighting                 0.500000
      * Dispersion:
        s8                             2.700000
        a1                             0.520000
        a2                             5.000000
        s9                             5.000000
      * Repulsion:
        kExp                           1.500000    1.000000
        rExp                           1.000000
      * Coulomb:
        alpha                          2.000000
        third order                    shell-resolved
        anisotropic                    true
        a3                             3.000000
        a5                             4.000000
        cn-shift                       1.200000
        cn-exp                         4.000000
        max-rad                        5.000000


          ...................................................
          :                      SETUP                      :
          :.................................................:
          :  # basis functions                 220          :
          :  # atomic orbitals                 217          :
          :  # shells                          123          :
          :  # electrons                       218          :
          :  max. iterations                   250          :
          :  Hamiltonian                  GFN2-xTB          :
          :  restarted?                      false          :
          :  GBSA solvation                  false          :
          :  PC potential                    false          :
          :  electronic temp.          300.0000000     K    :
          :  accuracy                    1.0000000          :
          :  -> integral cutoff          0.2500000E+02      :
          :  -> integral neglect         0.1000000E-07      :
          :  -> SCF convergence          0.1000000E-05 Eh   :
          :  -> wf. convergence          0.1000000E-03 e    :
          :  Broyden damping             0.4000000          :
          :  net charge                          1          :
          :  unpaired electrons                  0          :
          ...................................................

 iter      E             dE          RMSdq      gap      omega  full diag
   1   -120.9536777 -0.120954E+03  0.426E+00    2.38       0.0  T
   2   -121.1483055 -0.194628E+00  0.249E+00    2.55       1.0  T
   3   -121.1573976 -0.909202E-02  0.113E+00    2.15       1.0  T
   4   -121.1666891 -0.929153E-02  0.420E-01    1.94       1.0  T
   5   -121.1698048 -0.311569E-02  0.200E-01    1.97       1.0  T
   6   -121.1709792 -0.117440E-02  0.612E-02    1.98       1.0  T
   7   -121.1710285 -0.493118E-04  0.293E-02    1.98       1.0  T
   8   -121.1710350 -0.648564E-05  0.140E-02    1.99       1.0  T
   9   -121.1710394 -0.442768E-05  0.731E-03    1.99       1.5  T
  10   -121.1710411 -0.169533E-05  0.292E-03    1.99       3.9  T
  11   -121.1710413 -0.167893E-06  0.159E-03    1.99       7.1  T
  12   -121.1710413 -0.112517E-07  0.860E-04    1.99      13.1  T
  13   -121.1710413 -0.214817E-07  0.439E-04    1.99      25.6  T

   *** convergence criteria satisfied after 13 iterations ***

         #    Occupation            Energy/Eh            Energy/eV
      -------------------------------------------------------------
         1        2.0000           -0.9588968             -26.0929
       ...           ...                  ...                  ...
       103        2.0000           -0.5129407             -13.9578
       104        2.0000           -0.5098869             -13.8747
       105        2.0000           -0.5049451             -13.7403
       106        2.0000           -0.4932537             -13.4221
       107        2.0000           -0.4867341             -13.2447
       108        2.0000           -0.4853877             -13.2081
       109        2.0000           -0.4764891             -12.9659 (HOMO)
       110                         -0.4034083             -10.9773 (LUMO)
       111                         -0.3694340             -10.0528
       112                         -0.3600992              -9.7988
       113                         -0.3547917              -9.6544
       114                         -0.3322680              -9.0415
       ...                                ...                  ...
       217                          0.9816771              26.7128
      -------------------------------------------------------------
                  HL-Gap            0.0730808 Eh            1.9886 eV
             Fermi-level           -0.4399487 Eh          -11.9716 eV

 SCC (total)                   0 d,  0 h,  0 min,  2.042 sec
 SCC setup                      ...        0 min,  0.000 sec (  0.019%)
 Dispersion                     ...        0 min,  0.001 sec (  0.062%)
 classical contributions        ...        0 min,  0.000 sec (  0.005%)
 integral evaluation            ...        0 min,  0.007 sec (  0.338%)
 iterations                     ...        0 min,  1.913 sec ( 93.685%)
 molecular gradient             ...        0 min,  0.115 sec (  5.638%)
 printout                       ...        0 min,  0.005 sec (  0.251%)

         :::::::::::::::::::::::::::::::::::::::::::::::::::::
         ::                     SUMMARY                     ::
         :::::::::::::::::::::::::::::::::::::::::::::::::::::
         :: total energy            -119.625567210710 Eh    ::
         :: gradient norm              0.096066896289 Eh/a0 ::
         :: HOMO-LUMO gap              1.988629728877 eV    ::
         ::.................................................::
         :: SCC energy              -121.164355101995 Eh    ::
         :: -> isotropic ES            0.126148350352 Eh    ::
         :: -> anisotropic ES          0.004439890476 Eh    ::
         :: -> anisotropic XC          0.044682169613 Eh    ::
         :: -> dispersion             -0.121411223419 Eh    ::
         :: repulsion energy           1.538787891285 Eh    ::
         :: add. restraining           0.000000000000 Eh    ::
         :: total charge               1.000000000000 e     ::
         :::::::::::::::::::::::::::::::::::::::::::::::::::::

      ----------------------------------------------------------- 
     |                   =====================                   |
     |                        A N C O P T                        |
     |                   =====================                   |
     |               Approximate Normal Coordinate               |
     |                Rational Function Optimizer                |
      ----------------------------------------------------------- 
      ----------------------------------------------------------- 
     |                   =====================                   |
     |                        A N C O P T                        |
     |                   =====================                   |
     |               Approximate Normal Coordinate               |
     |                Rational Function Optimizer                |
      ----------------------------------------------------------- 

          ...................................................
          :                      SETUP                      :
          :.................................................:
          :   optimization level           extreme          :
          :   max. optcycles                  1580          :
          :   ANC micro-cycles                  20          :
          :   degrees of freedom               231          :
          :.................................................:
          :   RF solver                   davidson          :
          :   write xtbopt.log                true          :
          :   linear?                        false          :
          :   energy convergence         0.5000000E-07 Eh   :
          :   grad. convergence          0.5000000E-04 Eh/α :
          :   maxmium RF displ.          1.0000000          :
          :   Hlow (freq-cutoff)         0.1000000E-01      :
          :   Hmax (freq-cutoff)         5.0000000          :
          :   S6 in model hess.         20.0000000          :
          ...................................................

generating ANC from exact Hessian ...
Using Lindh-Hessian (1995)
 Shifting diagonal of input Hessian by    9.8820633835017928E-003
 Lowest  eigenvalues of input Hessian
    0.000000    0.000000    0.000000    0.000000    0.000000    0.000000
    0.010000    0.010052    0.010116    0.010289    0.010365    0.010443
    0.010810    0.011226    0.011420    0.011572    0.011722    0.011988
 Highest eigenvalues
    1.922228    1.925281    1.962327    1.979353    1.999134    2.025098


........................................................................
.............................. CYCLE    1 ..............................
........................................................................

 iter      E             dE          RMSdq      gap      omega  full diag
   1   -121.1710413 -0.121171E+03  0.245E-04    1.99       0.0  T
   2   -121.1710413 -0.434213E-09  0.185E-04    1.99      60.9  T
   3   -121.1710413 -0.315083E-09  0.139E-04    1.99      81.0  T
     SCC iter.                  ...        0 min,  0.308 sec
     gradient                   ...        0 min,  0.174 sec
 * total energy  :  -119.6255672 Eh     change       -0.2669339E-08 Eh
   gradient norm :     0.0960689 Eh/α   predicted     0.0000000E+00 (-100.00%)
   displ. norm   :     0.4054161 α      lambda       -0.2338702E-01
   maximum displ.:     0.1194226 α      in ANC's #71, #62, #41, ...

........................................................................
.............................. CYCLE    2 ..............................
........................................................................

 iter      E             dE          RMSdq      gap      omega  full diag
   1   -121.2366737 -0.121237E+03  0.252E-01    2.09       0.0  T
   2   -121.2368061 -0.132430E-03  0.138E-01    2.15       1.0  T
   3   -121.2367792  0.269002E-04  0.383E-02    2.19       1.0  T
   4   -121.2368252 -0.459895E-04  0.187E-02    2.18       1.0  T
   5   -121.2368332 -0.798058E-05  0.601E-03    2.18       1.9  T
   6   -121.2368337 -0.532372E-06  0.305E-03    2.18       3.7  T
   7   -121.2368339 -0.198560E-06  0.178E-03    2.18       6.3  T
   8   -121.2368340 -0.426601E-07  0.107E-03    2.18      10.5  T
   9   -121.2368340 -0.161414E-07  0.610E-04    2.18      18.4  T
  10   -121.2368340 -0.473027E-08  0.277E-04    2.18      40.6  T
     SCC iter.                  ...        0 min,  1.164 sec
     gradient                   ...        0 min,  0.113 sec
 * total energy  :  -119.6416935 Eh     change       -0.1612628E-01 Eh
   gradient norm :     0.0397224 Eh/α   predicted    -0.1361863E-01 ( -15.55%)
   displ. norm   :     0.4045763 α      lambda       -0.7563880E-02
   maximum displ.:     0.1186656 α      in ANC's #7, #18, #14, ...

........................................................................
.............................. CYCLE    3 ..............................
........................................................................

 iter      E             dE          RMSdq      gap      omega  full diag
   1   -121.2712987 -0.121271E+03  0.167E-01    2.27       0.0  T
   2   -121.2713594 -0.607662E-04  0.913E-02    2.31       1.0  T
   3   -121.2713439  0.155665E-04  0.274E-02    2.33       1.0  T
   4   -121.2713690 -0.251362E-04  0.120E-02    2.33       1.0  T
   5   -121.2713723 -0.333080E-05  0.396E-03    2.33       2.8  T
   6   -121.2713728 -0.434543E-06  0.154E-03    2.33       7.3  T
   7   -121.2713728 -0.314783E-07  0.831E-04    2.33      13.5  T
   8   -121.2713728 -0.163716E-07  0.331E-04    2.33      33.9  T
     SCC iter.                  ...        0 min,  1.008 sec
     gradient                   ...        0 min,  0.118 sec
 * total energy  :  -119.6464807 Eh     change       -0.4787205E-02 Eh
   gradient norm :     0.0136144 Eh/α   predicted    -0.4400977E-02 (  -8.07%)
   displ. norm   :     0.3879442 α      lambda       -0.2207711E-02
   maximum displ.:     0.1829809 α      in ANC's #7, #12, #14, ...

........................................................................
.............................. CYCLE    4 ..............................
........................................................................

 iter      E             dE          RMSdq      gap      omega  full diag
   1   -121.2760924 -0.121276E+03  0.806E-02    2.37       0.0  T
   2   -121.2761052 -0.128071E-04  0.451E-02    2.38       1.0  T
   3   -121.2760975  0.771752E-05  0.168E-02    2.39       1.0  T
   4   -121.2761083 -0.108626E-04  0.582E-03    2.39       1.9  T
   5   -121.2761093 -0.983964E-06  0.236E-03    2.39       4.8  T
   6   -121.2761095 -0.187488E-06  0.869E-04    2.39      12.9  T
   7   -121.2761095 -0.763424E-08  0.461E-04    2.39      24.4  T
     SCC iter.                  ...        0 min,  0.622 sec
     gradient                   ...        0 min,  0.169 sec
 * total energy  :  -119.6481886 Eh     change       -0.1707867E-02 Eh
   gradient norm :     0.0098355 Eh/α   predicted    -0.1270011E-02 ( -25.64%)
   displ. norm   :     0.5461645 α      lambda       -0.2046820E-02
   maximum displ.:     0.2880766 α      in ANC's #7, #12, #14, ...

........................................................................
.............................. CYCLE    5 ..............................
........................................................................

 iter      E             dE          RMSdq      gap      omega  full diag
   1   -121.2758376 -0.121276E+03  0.905E-02    2.41       0.0  T
   2   -121.2758539 -0.163002E-04  0.503E-02    2.42       1.0  T
   3   -121.2758491  0.484417E-05  0.178E-02    2.43       1.0  T
   4   -121.2758563 -0.722295E-05  0.716E-03    2.43       1.6  T
   5   -121.2758579 -0.161159E-05  0.294E-03    2.43       3.8  T
   6   -121.2758582 -0.306273E-06  0.124E-03    2.43       9.1  T
   7   -121.2758583 -0.204594E-07  0.623E-04    2.43      18.0  T
   8   -121.2758583 -0.311070E-08  0.357E-04    2.43      31.5  T
     SCC iter.                  ...        0 min,  0.964 sec
     gradient                   ...        0 min,  0.111 sec
 * total energy  :  -119.6497399 Eh     change       -0.1551372E-02 Eh
   gradient norm :     0.0088728 Eh/α   predicted    -0.1328693E-02 ( -14.35%)
   displ. norm   :     0.5372724 α      lambda       -0.1405642E-02
   maximum displ.:     0.2912485 α      in ANC's #7, #12, #5, ...

........................................................................
.............................. CYCLE    6 ..............................
........................................................................

 iter      E             dE          RMSdq      gap      omega  full diag
   1   -121.2748669 -0.121275E+03  0.791E-02    2.43       0.0  T
   2   -121.2748745 -0.758750E-05  0.452E-02    2.44       1.0  T
   3   -121.2748699  0.456953E-05  0.137E-02    2.44       1.0  T
   4   -121.2748760 -0.612541E-05  0.457E-03    2.44       2.5  T
   5   -121.2748764 -0.398770E-06  0.218E-03    2.44       5.2  T
   6   -121.2748767 -0.221498E-06  0.890E-04    2.44      12.6  T
   7   -121.2748767 -0.939441E-08  0.470E-04    2.44      23.9  T
     SCC iter.                  ...        0 min,  0.686 sec
     gradient                   ...        0 min,  0.111 sec
 * total energy  :  -119.6507982 Eh     change       -0.1058295E-02 Eh
   gradient norm :     0.0092941 Eh/α   predicted    -0.9057196E-03 ( -14.42%)
   displ. norm   :     0.5194526 α      lambda       -0.1063403E-02
   maximum displ.:     0.2694708 α      in ANC's #7, #12, #5, ...

........................................................................
.............................. CYCLE    7 ..............................
........................................................................

 iter      E             dE          RMSdq      gap      omega  full diag
   1   -121.2751007 -0.121275E+03  0.101E-01    2.44       0.0  T
   2   -121.2751135 -0.128394E-04  0.507E-02    2.44       1.0  T
   3   -121.2751137 -0.118359E-06  0.131E-02    2.44       1.0  T
   4   -121.2751141 -0.471550E-06  0.658E-03    2.44       1.7  T
   5   -121.2751156 -0.143782E-05  0.210E-03    2.44       5.4  T
   6   -121.2751157 -0.118051E-06  0.799E-04    2.44      14.1  T
   7   -121.2751157 -0.701374E-08  0.465E-04    2.44      24.2  T
     SCC iter.                  ...        0 min,  0.604 sec
     gradient                   ...        0 min,  0.112 sec
 * total energy  :  -119.6515841 Eh     change       -0.7858763E-03 Eh
   gradient norm :     0.0085938 Eh/α   predicted    -0.6751726E-03 ( -14.09%)
   displ. norm   :     0.4999265 α      lambda       -0.8468413E-03
   maximum displ.:     0.2332073 α      in ANC's #7, #5, #12, ...

........................................................................
.............................. CYCLE    8 ..............................
........................................................................

 iter      E             dE          RMSdq      gap      omega  full diag
   1   -121.2773515 -0.121277E+03  0.828E-02    2.44       0.0  T
   2   -121.2773568 -0.532783E-05  0.463E-02    2.43       1.0  T
   3   -121.2773542  0.264234E-05  0.106E-02    2.43       1.1  T
   4   -121.2773574 -0.319128E-05  0.467E-03    2.43       2.4  T
   5   -121.2773582 -0.872272E-06  0.124E-03    2.43       9.1  T
   6   -121.2773583 -0.203881E-07  0.591E-04    2.43      19.0  T
   7   -121.2773583 -0.675314E-08  0.329E-04    2.43      34.2  T
     SCC iter.                  ...        0 min,  0.763 sec
     gradient                   ...        0 min,  0.120 sec
 * total energy  :  -119.6522019 Eh     change       -0.6178065E-03 Eh
   gradient norm :     0.0068938 Eh/α   predicted    -0.5292503E-03 ( -14.33%)
   displ. norm   :     0.4347872 α      lambda       -0.6087799E-03
   maximum displ.:     0.2103263 α      in ANC's #5, #12, #7, ...

........................................................................
.............................. CYCLE    9 ..............................
........................................................................

 iter      E             dE          RMSdq      gap      omega  full diag
   1   -121.2787405 -0.121279E+03  0.881E-02    2.43       0.0  T
   2   -121.2787470 -0.648713E-05  0.473E-02    2.43       1.0  T
   3   -121.2787441  0.291137E-05  0.124E-02    2.43       1.0  T
   4   -121.2787479 -0.378168E-05  0.546E-03    2.43       2.1  T
   5   -121.2787488 -0.963840E-06  0.135E-03    2.43       8.3  T
   6   -121.2787489 -0.491319E-07  0.621E-04    2.43      18.1  T
   7   -121.2787489 -0.681526E-08  0.388E-04    2.43      29.0  T
     SCC iter.                  ...        0 min,  0.934 sec
     gradient                   ...        0 min,  0.119 sec
 * total energy  :  -119.6526495 Eh     change       -0.4475464E-03 Eh
   gradient norm :     0.0055109 Eh/α   predicted    -0.3619415E-03 ( -19.13%)
   displ. norm   :     0.3808212 α      lambda       -0.4365410E-03
   maximum displ.:     0.2006177 α      in ANC's #5, #12, #13, ...

........................................................................
.............................. CYCLE   10 ..............................
........................................................................

 iter      E             dE          RMSdq      gap      omega  full diag
   1   -121.2807194 -0.121281E+03  0.705E-02    2.43       0.0  T
   2   -121.2807228 -0.339456E-05  0.404E-02    2.43       1.0  T
   3   -121.2807203  0.242778E-05  0.933E-03    2.43       1.2  T
   4   -121.2807237 -0.336742E-05  0.340E-03    2.43       3.3  T
   5   -121.2807239 -0.233132E-06  0.141E-03    2.43       8.0  T
   6   -121.2807240 -0.567356E-07  0.707E-04    2.43      15.9  T
   7   -121.2807240 -0.785789E-09  0.414E-04    2.43      27.2  T
     SCC iter.                  ...        0 min,  0.835 sec
     gradient                   ...        0 min,  0.163 sec
 * total energy  :  -119.6529636 Eh     change       -0.3141712E-03 Eh
   gradient norm :     0.0053598 Eh/α   predicted    -0.2499271E-03 ( -20.45%)
   displ. norm   :     0.3333320 α      lambda       -0.2980134E-03
   maximum displ.:     0.1881240 α      in ANC's #5, #4, #6, ...

........................................................................
.............................. CYCLE   11 ..............................
........................................................................

 iter      E             dE          RMSdq      gap      omega  full diag
   1   -121.2805382 -0.121281E+03  0.635E-02    2.44       0.0  T
   2   -121.2805408 -0.250878E-05  0.355E-02    2.44       1.0  T
   3   -121.2805391  0.162040E-05  0.783E-03    2.44       1.4  T
   4   -121.2805413 -0.220735E-05  0.318E-03    2.44       3.5  T
   5   -121.2805416 -0.304623E-06  0.102E-03    2.44      11.0  T
   6   -121.2805417 -0.547960E-07  0.439E-04    2.44      25.6  T
   7   -121.2805417 -0.268982E-08  0.262E-04    2.44      42.9  T
     SCC iter.                  ...        0 min,  0.790 sec
     gradient                   ...        0 min,  0.112 sec
 * total energy  :  -119.6531849 Eh     change       -0.2212733E-03 Eh
   gradient norm :     0.0050085 Eh/α   predicted    -0.1655673E-03 ( -25.18%)
   displ. norm   :     0.3001391 α      lambda       -0.2350881E-03
   maximum displ.:     0.1786273 α      in ANC's #5, #4, #6, ...

........................................................................
.............................. CYCLE   12 ..............................
........................................................................

 iter      E             dE          RMSdq      gap      omega  full diag
   1   -121.2808624 -0.121281E+03  0.528E-02    2.45       0.0  T
   2   -121.2808639 -0.150458E-05  0.302E-02    2.45       1.0  T
   3   -121.2808631  0.838166E-06  0.550E-03    2.45       2.0  T
   4   -121.2808643 -0.120370E-05  0.256E-03    2.45       4.4  T
   5   -121.2808645 -0.229619E-06  0.679E-04    2.45      16.6  T
   6   -121.2808645 -0.879908E-08  0.401E-04    2.45      28.1  T
     SCC iter.                  ...        0 min,  0.813 sec
     gradient                   ...        0 min,  0.143 sec
 * total energy  :  -119.6533709 Eh     change       -0.1860344E-03 Eh
   gradient norm :     0.0042500 Eh/α   predicted    -0.1281341E-03 ( -31.12%)
   displ. norm   :     0.3229911 α      lambda       -0.2318893E-03
   maximum displ.:     0.1967971 α      in ANC's #5, #4, #6, ...

........................................................................
.............................. CYCLE   13 ..............................
........................................................................

 iter      E             dE          RMSdq      gap      omega  full diag
   1   -121.2808974 -0.121281E+03  0.532E-02    2.46       0.0  T
   2   -121.2808991 -0.168908E-05  0.310E-02    2.46       1.0  T
   3   -121.2808971  0.200627E-05  0.669E-03    2.46       1.7  T
   4   -121.2808997 -0.258770E-05  0.211E-03    2.46       5.3  T
   5   -121.2808998 -0.134963E-06  0.790E-04    2.46      14.2  T
   6   -121.2808998 -0.166559E-07  0.353E-04    2.46      31.9  T
     SCC iter.                  ...        0 min,  0.604 sec
     gradient                   ...        0 min,  0.133 sec
 * total energy  :  -119.6535592 Eh     change       -0.1882491E-03 Eh
   gradient norm :     0.0037358 Eh/α   predicted    -0.1280419E-03 ( -31.98%)
   displ. norm   :     0.3747184 α      lambda       -0.2398954E-03
   maximum displ.:     0.2299337 α      in ANC's #5, #4, #6, ...

........................................................................
.............................. CYCLE   14 ..............................
........................................................................

 iter      E             dE          RMSdq      gap      omega  full diag
   1   -121.2807048 -0.121281E+03  0.592E-02    2.47       0.0  T
   2   -121.2807066 -0.187967E-05  0.346E-02    2.47       1.0  T
   3   -121.2807049  0.176462E-05  0.646E-03    2.47       1.7  T
   4   -121.2807072 -0.234673E-05  0.223E-03    2.48       5.0  T
   5   -121.2807074 -0.163706E-06  0.840E-04    2.47      13.4  T
   6   -121.2807074 -0.178147E-07  0.378E-04    2.47      29.8  T
     SCC iter.                  ...        0 min,  0.582 sec
     gradient                   ...        0 min,  0.144 sec
 * total energy  :  -119.6537546 Eh     change       -0.1954082E-03 Eh
   gradient norm :     0.0043146 Eh/α   predicted    -0.1367957E-03 ( -29.99%)
   displ. norm   :     0.4240191 α      lambda       -0.2423813E-03
   maximum displ.:     0.2593074 α      in ANC's #5, #4, #6, ...

........................................................................
.............................. CYCLE   15 ..............................
........................................................................

 iter      E             dE          RMSdq      gap      omega  full diag
   1   -121.2810850 -0.121281E+03  0.648E-02    2.48       0.0  T
   2   -121.2810868 -0.181455E-05  0.378E-02    2.48       1.0  T
   3   -121.2810856  0.124310E-05  0.613E-03    2.48       1.8  T
   4   -121.2810874 -0.181203E-05  0.213E-03    2.49       5.3  T
   5   -121.2810875 -0.122543E-06  0.962E-04    2.48      11.7  T
   6   -121.2810875 -0.251295E-07  0.409E-04    2.48      27.5  T
     SCC iter.                  ...        0 min,  0.784 sec
     gradient                   ...        0 min,  0.112 sec
 * total energy  :  -119.6539514 Eh     change       -0.1967640E-03 Eh
   gradient norm :     0.0049362 Eh/α   predicted    -0.1429815E-03 ( -27.33%)
   displ. norm   :     0.4673172 α      lambda       -0.2350789E-03
   maximum displ.:     0.2883329 α      in ANC's #5, #4, #9, ...

........................................................................
.............................. CYCLE   16 ..............................
........................................................................

 iter      E             dE          RMSdq      gap      omega  full diag
   1   -121.2807150 -0.121281E+03  0.700E-02    2.49       0.0  T
   2   -121.2807166 -0.164437E-05  0.406E-02    2.49       1.0  T
   3   -121.2807159  0.748729E-06  0.551E-03    2.49       2.0  T
   4   -121.2807172 -0.128288E-05  0.235E-03    2.49       4.8  T
   5   -121.2807173 -0.146201E-06  0.888E-04    2.49      12.7  T
   6   -121.2807173 -0.186974E-07  0.468E-04    2.49      24.0  T
     SCC iter.                  ...        0 min,  0.770 sec
     gradient                   ...        0 min,  0.178 sec
 * total energy  :  -119.6541406 Eh     change       -0.1892267E-03 Eh
   gradient norm :     0.0049852 Eh/α   predicted    -0.1432115E-03 ( -24.32%)
   displ. norm   :     0.4847688 α      lambda       -0.2266254E-03
   maximum displ.:     0.2982035 α      in ANC's #5, #4, #9, ...

........................................................................
.............................. CYCLE   17 ..............................
........................................................................

 iter      E             dE          RMSdq      gap      omega  full diag
   1   -121.2821163 -0.121282E+03  0.718E-02    2.50       0.0  T
   2   -121.2821179 -0.166209E-05  0.413E-02    2.50       1.0  T
   3   -121.2821175  0.381096E-06  0.561E-03    2.50       2.0  T
   4   -121.2821184 -0.806480E-06  0.272E-03    2.50       4.1  T
   5   -121.2821185 -0.195882E-06  0.925E-04    2.50      12.2  T
   6   -121.2821186 -0.217730E-07  0.565E-04    2.50      19.9  T
     SCC iter.                  ...        0 min,  0.805 sec
     gradient                   ...        0 min,  0.168 sec
 * total energy  :  -119.6543157 Eh     change       -0.1751655E-03 Eh
   gradient norm :     0.0043836 Eh/α   predicted    -0.1399437E-03 ( -20.11%)
   displ. norm   :     0.5176299 α      lambda       -0.1963251E-03
   maximum displ.:     0.3249376 α      in ANC's #5, #4, #9, ...

........................................................................
.............................. CYCLE   18 ..............................
........................................................................

 iter      E             dE          RMSdq      gap      omega  full diag
   1   -121.2804008 -0.121280E+03  0.752E-02    2.50       0.0  T
   2   -121.2804031 -0.232823E-05  0.432E-02    2.50       1.0  T
   3   -121.2804027  0.457098E-06  0.631E-03    2.50       1.8  T
   4   -121.2804036 -0.966591E-06  0.309E-03    2.50       3.6  T
   5   -121.2804039 -0.263927E-06  0.107E-03    2.50      10.6  T
   6   -121.2804039 -0.237729E-07  0.642E-04    2.50      17.5  T
   7   -121.2804039 -0.261066E-08  0.404E-04    2.50      27.9  T
     SCC iter.                  ...        0 min,  0.718 sec
     gradient                   ...        0 min,  0.111 sec
 * total energy  :  -119.6544584 Eh     change       -0.1426093E-03 Eh
   gradient norm :     0.0044925 Eh/α   predicted    -0.1244662E-03 ( -12.72%)
   displ. norm   :     0.4517074 α      lambda       -0.1931717E-03
   maximum displ.:     0.2790068 α      in ANC's #5, #4, #9, ...

........................................................................
.............................. CYCLE   19 ..............................
........................................................................

 iter      E             dE          RMSdq      gap      omega  full diag
   1   -121.2833390 -0.121283E+03  0.652E-02    2.50       0.0  T
   2   -121.2833418 -0.279177E-05  0.375E-02    2.50       1.0  T
   3   -121.2833410  0.783592E-06  0.639E-03    2.50       1.8  T
   4   -121.2833423 -0.125964E-05  0.276E-03    2.50       4.1  T
   5   -121.2833424 -0.143285E-06  0.125E-03    2.50       9.0  T
   6   -121.2833425 -0.620325E-07  0.556E-04    2.50      20.2  T
   7   -121.2833425 -0.749466E-09  0.347E-04    2.50      32.5  T
     SCC iter.                  ...        0 min,  1.019 sec
     gradient                   ...        0 min,  0.170 sec
 * total energy  :  -119.6545849 Eh     change       -0.1264970E-03 Eh
   gradient norm :     0.0043249 Eh/α   predicted    -0.1162990E-03 (  -8.06%)
   displ. norm   :     0.4946106 α      lambda       -0.1466697E-03
   maximum displ.:     0.3139207 α      in ANC's #5, #4, #9, ...

........................................................................
.............................. CYCLE   20 ..............................
........................................................................

 iter      E             dE          RMSdq      gap      omega  full diag
   1   -121.2815194 -0.121282E+03  0.696E-02    2.51       0.0  T
   2   -121.2815217 -0.228463E-05  0.400E-02    2.51       1.0  T
   3   -121.2815205  0.117408E-05  0.693E-03    2.51       1.6  T
   4   -121.2815222 -0.171903E-05  0.283E-03    2.51       4.0  T
   5   -121.2815224 -0.169512E-06  0.111E-03    2.51      10.1  T
   6   -121.2815224 -0.399503E-07  0.554E-04    2.51      20.3  T
   7   -121.2815224 -0.261787E-08  0.361E-04    2.51      31.2  T
     SCC iter.                  ...        0 min,  0.920 sec
     gradient                   ...        0 min,  0.112 sec
 * total energy  :  -119.6546840 Eh     change       -0.9917702E-04 Eh
   gradient norm :     0.0041518 Eh/α   predicted    -0.9127932E-04 (  -7.96%)
   displ. norm   :     0.4886467 α      lambda        0.1095215E-04
   maximum displ.:     0.3101059 α      in ANC's #5, #4, #9, ...
 * RMSD in coord.:     0.7532958 α      energy gain  -0.2911682E-01 Eh

generating ANC from exact Hessian ...
Using Lindh-Hessian (1995)
 Shifting diagonal of input Hessian by    1.0117464541193999E-002
 Lowest  eigenvalues of input Hessian
    0.010000    0.000000    0.000000    0.000000    0.000000    0.000000
    0.000000    0.010264    0.010297    0.010389    0.010433    0.010615
    0.010809    0.011130    0.011210    0.011632    0.012003    0.012244
 Highest eigenvalues
    1.998547    2.007840    2.021567    2.031623    2.039736    2.057505


........................................................................
.............................. CYCLE   21 ..............................
........................................................................

 iter      E             dE          RMSdq      gap      omega  full diag
   1   -121.2778644 -0.121278E+03  0.691E-02    2.52       0.0  T
   2   -121.2778671 -0.275688E-05  0.398E-02    2.52       1.0  T
   3   -121.2778659  0.124615E-05  0.718E-03    2.52       1.6  T
   4   -121.2778677 -0.183886E-05  0.285E-03    2.52       3.9  T
   5   -121.2778679 -0.155891E-06  0.123E-03    2.52       9.1  T
   6   -121.2778679 -0.499824E-07  0.570E-04    2.52      19.7  T
   7   -121.2778679 -0.267066E-08  0.373E-04    2.52      30.1  T
     SCC iter.                  ...        0 min,  0.710 sec
     gradient                   ...        0 min,  0.144 sec
 * total energy  :  -119.6546600 Eh     change        0.2398996E-04 Eh
   gradient norm :     0.0083014 Eh/α   predicted     0.0000000E+00 (-100.00%)
   displ. norm   :     0.0691747 α      lambda       -0.2073701E-03
   maximum displ.:     0.0246078 α      in ANC's #19, #5, #57, ...

........................................................................
.............................. CYCLE   22 ..............................
........................................................................

 iter      E             dE          RMSdq      gap      omega  full diag
   1   -121.2822323 -0.121282E+03  0.247E-02    2.52       0.0  T
   2   -121.2822336 -0.134173E-05  0.137E-02    2.52       1.0  T
   3   -121.2822335  0.789775E-07  0.365E-03    2.52       3.1  T
   4   -121.2822337 -0.196279E-06  0.154E-03    2.52       7.3  T
   5   -121.2822338 -0.450420E-07  0.686E-04    2.52      16.4  T
   6   -121.2822338 -0.213192E-07  0.240E-04    2.52      46.9  T
     SCC iter.                  ...        0 min,  0.642 sec
     gradient                   ...        0 min,  0.152 sec
 * total energy  :  -119.6547974 Eh     change       -0.1373974E-03 Eh
   gradient norm :     0.0029788 Eh/α   predicted    -0.1046654E-03 ( -23.82%)
   displ. norm   :     0.0908097 α      lambda       -0.9522539E-04
   maximum displ.:     0.0297018 α      in ANC's #5, #7, #33, ...

........................................................................
.............................. CYCLE   23 ..............................
........................................................................

 iter      E             dE          RMSdq      gap      omega  full diag
   1   -121.2851188 -0.121285E+03  0.217E-02    2.52       0.0  T
   2   -121.2851201 -0.130401E-05  0.118E-02    2.53       1.0  T
   3   -121.2851200  0.548608E-07  0.385E-03    2.53       2.9  T
   4   -121.2851202 -0.178351E-06  0.175E-03    2.53       6.4  T
   5   -121.2851202 -0.516573E-07  0.818E-04    2.53      13.8  T
   6   -121.2851203 -0.297742E-07  0.360E-04    2.53      31.3  T
     SCC iter.                  ...        0 min,  0.589 sec
     gradient                   ...        0 min,  0.162 sec
 * total energy  :  -119.6548576 Eh     change       -0.6019448E-04 Eh
   gradient norm :     0.0020405 Eh/α   predicted    -0.4802340E-04 ( -20.22%)
   displ. norm   :     0.1080873 α      lambda       -0.6141268E-04
   maximum displ.:     0.0429046 α      in ANC's #5, #19, #33, ...

........................................................................
.............................. CYCLE   24 ..............................
........................................................................

 iter      E             dE          RMSdq      gap      omega  full diag
   1   -121.2856857 -0.121286E+03  0.224E-02    2.53       0.0  T
   2   -121.2856864 -0.653640E-06  0.121E-02    2.53       1.0  T
   3   -121.2856864 -0.332890E-07  0.289E-03    2.53       3.9  T
   4   -121.2856864 -0.159889E-07  0.145E-03    2.53       7.8  T
   5   -121.2856865 -0.638208E-07  0.620E-04    2.53      18.2  T
   6   -121.2856865 -0.204689E-07  0.225E-04    2.53      49.9  T
     SCC iter.                  ...        0 min,  0.775 sec
     gradient                   ...        0 min,  0.173 sec
 * total energy  :  -119.6548974 Eh     change       -0.3977088E-04 Eh
   gradient norm :     0.0030053 Eh/α   predicted    -0.3106617E-04 ( -21.89%)
   displ. norm   :     0.1416424 α      lambda       -0.6132160E-04
   maximum displ.:     0.0517093 α      in ANC's #5, #8, #33, ...

........................................................................
.............................. CYCLE   25 ..............................
........................................................................

 iter      E             dE          RMSdq      gap      omega  full diag
   1   -121.2847454 -0.121285E+03  0.266E-02    2.53       0.0  T
   2   -121.2847463 -0.928619E-06  0.146E-02    2.53       1.0  T
   3   -121.2847463 -0.638458E-08  0.372E-03    2.53       3.0  T
   4   -121.2847464 -0.913255E-07  0.180E-03    2.54       6.2  T
   5   -121.2847465 -0.103031E-06  0.774E-04    2.54      14.5  T
   6   -121.2847465 -0.175379E-07  0.361E-04    2.54      31.2  T
     SCC iter.                  ...        0 min,  0.785 sec
     gradient                   ...        0 min,  0.114 sec
 * total energy  :  -119.6549385 Eh     change       -0.4113513E-04 Eh
   gradient norm :     0.0026455 Eh/α   predicted    -0.3127729E-04 ( -23.96%)
   displ. norm   :     0.1295569 α      lambda       -0.4406910E-04
   maximum displ.:     0.0572488 α      in ANC's #5, #33, #1, ...

........................................................................
.............................. CYCLE   26 ..............................
........................................................................

 iter      E             dE          RMSdq      gap      omega  full diag
   1   -121.2832009 -0.121283E+03  0.213E-02    2.54       0.0  T
   2   -121.2832013 -0.389763E-06  0.121E-02    2.54       1.0  T
   3   -121.2832012  0.344975E-07  0.240E-03    2.54       4.7  T
   4   -121.2832014 -0.125697E-06  0.982E-04    2.54      11.5  T
   5   -121.2832014 -0.229360E-07  0.410E-04    2.54      27.4  T
     SCC iter.                  ...        0 min,  0.498 sec
     gradient                   ...        0 min,  0.115 sec
 * total energy  :  -119.6549687 Eh     change       -0.3014047E-04 Eh
   gradient norm :     0.0020248 Eh/α   predicted    -0.2240457E-04 ( -25.67%)
   displ. norm   :     0.1272270 α      lambda       -0.3928322E-04
   maximum displ.:     0.0538269 α      in ANC's #5, #1, #33, ...

........................................................................
.............................. CYCLE   27 ..............................
........................................................................

 iter      E             dE          RMSdq      gap      omega  full diag
   1   -121.2821625 -0.121282E+03  0.211E-02    2.53       0.0  T
   2   -121.2821630 -0.468282E-06  0.120E-02    2.53       1.0  T
   3   -121.2821628  0.218220E-06  0.292E-03    2.53       3.9  T
   4   -121.2821631 -0.280570E-06  0.126E-03    2.53       8.9  T
   5   -121.2821631 -0.604869E-07  0.428E-04    2.53      26.3  T
   6   -121.2821631 -0.885295E-08  0.159E-04    2.53      70.8  T
     SCC iter.                  ...        0 min,  0.747 sec
     gradient                   ...        0 min,  0.112 sec
 * total energy  :  -119.6549974 Eh     change       -0.2866871E-04 Eh
   gradient norm :     0.0023154 Eh/α   predicted    -0.1997172E-04 ( -30.34%)
   displ. norm   :     0.1663538 α      lambda       -0.4973824E-04
   maximum displ.:     0.0768836 α      in ANC's #5, #1, #33, ...

........................................................................
.............................. CYCLE   28 ..............................
........................................................................

 iter      E             dE          RMSdq      gap      omega  full diag
   1   -121.2816172 -0.121282E+03  0.278E-02    2.53       0.0  T
   2   -121.2816177 -0.473933E-06  0.158E-02    2.53       1.0  T
   3   -121.2816175  0.163391E-06  0.289E-03    2.53       3.9  T
   4   -121.2816178 -0.229630E-06  0.130E-03    2.53       8.6  T
   5   -121.2816178 -0.588525E-07  0.413E-04    2.53      27.3  T
   6   -121.2816178 -0.880890E-08  0.160E-04    2.53      70.3  T
     SCC iter.                  ...        0 min,  0.691 sec
     gradient                   ...        0 min,  0.120 sec
 * total energy  :  -119.6550342 Eh     change       -0.3686056E-04 Eh
   gradient norm :     0.0029556 Eh/α   predicted    -0.2555804E-04 ( -30.66%)
   displ. norm   :     0.1905694 α      lambda       -0.5487691E-04
   maximum displ.:     0.0872585 α      in ANC's #1, #5, #33, ...

........................................................................
.............................. CYCLE   29 ..............................
........................................................................

 iter      E             dE          RMSdq      gap      omega  full diag
   1   -121.2820357 -0.121282E+03  0.285E-02    2.52       0.0  T
   2   -121.2820361 -0.390558E-06  0.166E-02    2.52       1.0  T
   3   -121.2820357  0.373233E-06  0.292E-03    2.52       3.9  T
   4   -121.2820362 -0.460642E-06  0.108E-03    2.52      10.4  T
   5   -121.2820362 -0.332220E-07  0.399E-04    2.52      28.2  T
   6   -121.2820362 -0.792464E-08  0.164E-04    2.52      68.8  T
     SCC iter.                  ...        0 min,  0.656 sec
     gradient                   ...        0 min,  0.143 sec
 * total energy  :  -119.6550762 Eh     change       -0.4195724E-04 Eh
   gradient norm :     0.0031073 Eh/α   predicted    -0.2843800E-04 ( -32.22%)
   displ. norm   :     0.2330614 α      lambda       -0.6280500E-04
   maximum displ.:     0.1128856 α      in ANC's #1, #5, #33, ...

........................................................................
.............................. CYCLE   30 ..............................
........................................................................

 iter      E             dE          RMSdq      gap      omega  full diag
   1   -121.2828695 -0.121283E+03  0.317E-02    2.52       0.0  T
   2   -121.2828699 -0.455007E-06  0.182E-02    2.52       1.0  T
   3   -121.2828698  0.150486E-06  0.258E-03    2.52       4.4  T
   4   -121.2828700 -0.202523E-06  0.126E-03    2.52       8.9  T
   5   -121.2828700 -0.663303E-07  0.380E-04    2.52      29.6  T
   6   -121.2828700 -0.455547E-08  0.154E-04    2.52      72.9  T
     SCC iter.                  ...        0 min,  0.612 sec
     gradient                   ...        0 min,  0.143 sec
 * total energy  :  -119.6551248 Eh     change       -0.4862111E-04 Eh
   gradient norm :     0.0030693 Eh/α   predicted    -0.3311012E-04 ( -31.90%)
   displ. norm   :     0.2683994 α      lambda       -0.7149138E-04
   maximum displ.:     0.1398413 α      in ANC's #1, #5, #33, ...

........................................................................
.............................. CYCLE   31 ..............................
........................................................................

 iter      E             dE          RMSdq      gap      omega  full diag
   1   -121.2839284 -0.121284E+03  0.333E-02    2.52       0.0  T
   2   -121.2839290 -0.564115E-06  0.190E-02    2.52       1.0  T
   3   -121.2839289  0.138720E-06  0.294E-03    2.52       3.8  T
   4   -121.2839291 -0.224687E-06  0.137E-03    2.52       8.2  T
   5   -121.2839291 -0.604348E-07  0.466E-04    2.52      24.2  T
   6   -121.2839291 -0.651362E-08  0.173E-04    2.52      64.9  T
     SCC iter.                  ...        0 min,  0.774 sec
     gradient                   ...        0 min,  0.138 sec
 * total energy  :  -119.6551798 Eh     change       -0.5502952E-04 Eh
   gradient norm :     0.0028835 Eh/α   predicted    -0.3832135E-04 ( -30.36%)
   displ. norm   :     0.2796122 α      lambda       -0.6947843E-04
   maximum displ.:     0.1545751 α      in ANC's #1, #5, #33, ...

........................................................................
.............................. CYCLE   32 ..............................
........................................................................

 iter      E             dE          RMSdq      gap      omega  full diag
   1   -121.2843631 -0.121284E+03  0.328E-02    2.53       0.0  T
   2   -121.2843638 -0.716620E-06  0.185E-02    2.53       1.0  T
   3   -121.2843636  0.210956E-06  0.379E-03    2.53       3.0  T
   4   -121.2843639 -0.346276E-06  0.159E-03    2.53       7.1  T
   5   -121.2843640 -0.507055E-07  0.585E-04    2.53      19.2  T
   6   -121.2843640 -0.151451E-07  0.211E-04    2.53      53.3  T
     SCC iter.                  ...        0 min,  0.515 sec
     gradient                   ...        0 min,  0.112 sec
 * total energy  :  -119.6552330 Eh     change       -0.5321572E-04 Eh
   gradient norm :     0.0025267 Eh/α   predicted    -0.3745830E-04 ( -29.61%)
   displ. norm   :     0.2303873 α      lambda       -0.6188484E-04
   maximum displ.:     0.1394396 α      in ANC's #1, #5, #33, ...

........................................................................
.............................. CYCLE   33 ..............................
........................................................................

 iter      E             dE          RMSdq      gap      omega  full diag
   1   -121.2852920 -0.121285E+03  0.277E-02    2.53       0.0  T
   2   -121.2852928 -0.808721E-06  0.156E-02    2.53       1.0  T
   3   -121.2852926  0.190251E-06  0.381E-03    2.53       2.9  T
   4   -121.2852930 -0.337608E-06  0.150E-03    2.53       7.5  T
   5   -121.2852930 -0.323727E-07  0.624E-04    2.53      18.0  T
   6   -121.2852930 -0.213982E-07  0.209E-04    2.53      53.8  T
     SCC iter.                  ...        0 min,  0.670 sec
     gradient                   ...        0 min,  0.150 sec
 * total energy  :  -119.6552757 Eh     change       -0.4270271E-04 Eh
   gradient norm :     0.0024460 Eh/α   predicted    -0.3258495E-04 ( -23.69%)
   displ. norm   :     0.3537269 α      lambda       -0.6807982E-04
   maximum displ.:     0.1981255 α      in ANC's #1, #5, #33, ...

........................................................................
.............................. CYCLE   34 ..............................
........................................................................

 iter      E             dE          RMSdq      gap      omega  full diag
   1   -121.2816294 -0.121282E+03  0.414E-02    2.54       0.0  T
   2   -121.2816308 -0.145692E-05  0.236E-02    2.54       1.0  T
   3   -121.2816306  0.212264E-06  0.475E-03    2.54       2.4  T
   4   -121.2816311 -0.433354E-06  0.185E-03    2.54       6.1  T
   5   -121.2816311 -0.607060E-07  0.860E-04    2.54      13.1  T
   6   -121.2816312 -0.286620E-07  0.270E-04    2.54      41.7  T
     SCC iter.                  ...        0 min,  0.829 sec
     gradient                   ...        0 min,  0.118 sec
 * total energy  :  -119.6552835 Eh     change       -0.7718627E-05 Eh
   gradient norm :     0.0055962 Eh/α   predicted    -0.3829979E-04 ( 396.20%)
   displ. norm   :     0.0859966 α      lambda       -0.8901628E-04
   maximum displ.:     0.0378155 α      in ANC's #5, #6, #33, ...

........................................................................
.............................. CYCLE   35 ..............................
........................................................................

 iter      E             dE          RMSdq      gap      omega  full diag
   1   -121.2841068 -0.121284E+03  0.160E-02    2.54       0.0  T
   2   -121.2841074 -0.541884E-06  0.916E-03    2.54       1.2  T
   3   -121.2841074  0.606880E-08  0.212E-03    2.54       5.3  T
   4   -121.2841074 -0.750021E-07  0.959E-04    2.54      11.7  T
   5   -121.2841075 -0.124602E-07  0.518E-04    2.54      21.7  T
     SCC iter.                  ...        0 min,  0.537 sec
     gradient                   ...        0 min,  0.176 sec
 * total energy  :  -119.6553371 Eh     change       -0.5362682E-04 Eh
   gradient norm :     0.0025182 Eh/α   predicted    -0.4484149E-04 ( -16.38%)
   displ. norm   :     0.1192730 α      lambda       -0.3566693E-04
   maximum displ.:     0.0763985 α      in ANC's #1, #4, #9, ...

........................................................................
.............................. CYCLE   36 ..............................
........................................................................

 iter      E             dE          RMSdq      gap      omega  full diag
   1   -121.2843880 -0.121284E+03  0.155E-02    2.54       0.0  T
   2   -121.2843882 -0.165005E-06  0.891E-03    2.54       1.3  T
   3   -121.2843881  0.659730E-07  0.178E-03    2.54       6.3  T
   4   -121.2843882 -0.958558E-07  0.701E-04    2.54      16.0  T
   5   -121.2843882 -0.101226E-07  0.365E-04    2.54      30.8  T
     SCC iter.                  ...        0 min,  0.739 sec
     gradient                   ...        0 min,  0.117 sec
 * total energy  :  -119.6553674 Eh     change       -0.3032415E-04 Eh
   gradient norm :     0.0023003 Eh/α   predicted    -0.1809077E-04 ( -40.34%)
   displ. norm   :     0.2695434 α      lambda       -0.7309469E-04
   maximum displ.:     0.1680430 α      in ANC's #1, #4, #9, ...

........................................................................
.............................. CYCLE   37 ..............................
........................................................................

 iter      E             dE          RMSdq      gap      omega  full diag
   1   -121.2841330 -0.121284E+03  0.347E-02    2.54       0.0  T
   2   -121.2841336 -0.628437E-06  0.198E-02    2.54       1.0  T
   3   -121.2841331  0.516959E-06  0.401E-03    2.54       2.8  T
   4   -121.2841337 -0.626201E-06  0.152E-03    2.54       7.4  T
   5   -121.2841338 -0.810417E-07  0.646E-04    2.54      17.4  T
   6   -121.2841338 -0.151218E-07  0.281E-04    2.54      40.0  T
     SCC iter.                  ...        0 min,  0.687 sec
     gradient                   ...        0 min,  0.172 sec
 * total energy  :  -119.6554235 Eh     change       -0.5611144E-04 Eh
   gradient norm :     0.0018480 Eh/α   predicted    -0.3920370E-04 ( -30.13%)
   displ. norm   :     0.5032821 α      lambda       -0.5952251E-04
   maximum displ.:     0.3141095 α      in ANC's #1, #4, #9, ...

........................................................................
.............................. CYCLE   38 ..............................
........................................................................

 iter      E             dE          RMSdq      gap      omega  full diag
   1   -121.2819351 -0.121282E+03  0.604E-02    2.54       0.0  T
   2   -121.2819373 -0.219774E-05  0.342E-02    2.54       1.0  T
   3   -121.2819358  0.147220E-05  0.778E-03    2.54       1.4  T
   4   -121.2819376 -0.180233E-05  0.279E-03    2.54       4.0  T
   5   -121.2819378 -0.230009E-06  0.120E-03    2.54       9.3  T
   6   -121.2819379 -0.711205E-07  0.421E-04    2.54      26.8  T
   7   -121.2819379 -0.136950E-08  0.270E-04    2.54      41.7  T
     SCC iter.                  ...        0 min,  0.755 sec
     gradient                   ...        0 min,  0.112 sec
 * total energy  :  -119.6554721 Eh     change       -0.4858515E-04 Eh
   gradient norm :     0.0040166 Eh/α   predicted    -0.3311223E-04 ( -31.85%)
   displ. norm   :     0.1186302 α      lambda       -0.4627521E-04
   maximum displ.:     0.0708348 α      in ANC's #1, #4, #7, ...

........................................................................
.............................. CYCLE   39 ..............................
........................................................................

 iter      E             dE          RMSdq      gap      omega  full diag
   1   -121.2833816 -0.121283E+03  0.164E-02    2.54       0.0  T
   2   -121.2833820 -0.331178E-06  0.912E-03    2.54       1.2  T
   3   -121.2833818  0.146933E-06  0.234E-03    2.54       4.8  T
   4   -121.2833820 -0.176794E-06  0.102E-03    2.54      11.0  T
   5   -121.2833820 -0.440123E-07  0.284E-04    2.54      39.6  T
   6   -121.2833820 -0.115507E-08  0.134E-04    2.54      84.2  T
     SCC iter.                  ...        0 min,  0.518 sec
     gradient                   ...        0 min,  0.112 sec
 * total energy  :  -119.6555051 Eh     change       -0.3302936E-04 Eh
   gradient norm :     0.0028284 Eh/α   predicted    -0.2346708E-04 ( -28.95%)
   displ. norm   :     0.2394376 α      lambda       -0.6754909E-04
   maximum displ.:     0.1478952 α      in ANC's #1, #4, #7, ...

........................................................................
.............................. CYCLE   40 ..............................
........................................................................

 iter      E             dE          RMSdq      gap      omega  full diag
   1   -121.2849524 -0.121285E+03  0.277E-02    2.55       0.0  T
   2   -121.2849531 -0.779078E-06  0.148E-02    2.55       1.0  T
   3   -121.2849528  0.325429E-06  0.425E-03    2.55       2.6  T
   4   -121.2849532 -0.406342E-06  0.181E-03    2.55       6.2  T
   5   -121.2849533 -0.109542E-06  0.544E-04    2.55      20.7  T
   6   -121.2849533 -0.154067E-07  0.208E-04    2.55      54.0  T
     SCC iter.                  ...        0 min,  0.689 sec
     gradient                   ...        0 min,  0.172 sec
 * total energy  :  -119.6555621 Eh     change       -0.5693100E-04 Eh
   gradient norm :     0.0019777 Eh/α   predicted    -0.3571626E-04 ( -37.26%)
   displ. norm   :     0.7070247 α      lambda       -0.1028978E-03
   maximum displ.:     0.4401668 α      in ANC's #1, #4, #7, ...

........................................................................
.............................. CYCLE   41 ..............................
........................................................................

 iter      E             dE          RMSdq      gap      omega  full diag
   1   -121.2842757 -0.121284E+03  0.761E-02    2.56       0.0  T
   2   -121.2842813 -0.563626E-05  0.406E-02    2.57       1.0  T
   3   -121.2842797  0.161336E-05  0.114E-02    2.56       1.0  T
   4   -121.2842820 -0.226072E-05  0.477E-03    2.57       2.4  T
   5   -121.2842826 -0.607540E-06  0.165E-03    2.57       6.8  T
   6   -121.2842827 -0.164743E-06  0.569E-04    2.57      19.8  T
   7   -121.2842827 -0.648605E-08  0.321E-04    2.57      35.0  T
     SCC iter.                  ...        0 min,  0.868 sec
     gradient                   ...        0 min,  0.118 sec
 * total energy  :  -119.6556607 Eh     change       -0.9867578E-04 Eh
   gradient norm :     0.0040331 Eh/α   predicted    -0.6288607E-04 ( -36.27%)
   displ. norm   :     0.2575776 α      lambda       -0.5877662E-04
   maximum displ.:     0.1613786 α      in ANC's #1, #4, #7, ...

........................................................................
.............................. CYCLE   42 ..............................
........................................................................

 iter      E             dE          RMSdq      gap      omega  full diag
   1   -121.2847254 -0.121285E+03  0.271E-02    2.57       0.0  T
   2   -121.2847259 -0.508142E-06  0.146E-02    2.57       1.0  T
   3   -121.2847259  0.486277E-07  0.312E-03    2.57       3.6  T
   4   -121.2847259 -0.493175E-07  0.164E-03    2.57       6.9  T
   5   -121.2847260 -0.140660E-06  0.350E-04    2.57      32.1  T
   6   -121.2847260 -0.166690E-08  0.220E-04    2.57      51.1  T
     SCC iter.                  ...        0 min,  0.715 sec
     gradient                   ...        0 min,  0.112 sec
 * total energy  :  -119.6557109 Eh     change       -0.5018124E-04 Eh
   gradient norm :     0.0031671 Eh/α   predicted    -0.3134057E-04 ( -37.55%)
   displ. norm   :     0.3833507 α      lambda       -0.9350465E-04
   maximum displ.:     0.2451061 α      in ANC's #1, #4, #7, ...
 * RMSD in coord.:     0.4031246 α      energy gain  -0.1026888E-02 Eh

generating ANC from exact Hessian ...
Using Lindh-Hessian (1995)
 Shifting diagonal of input Hessian by    1.0125839080365224E-002
 Lowest  eigenvalues of input Hessian
    0.010000    0.000000    0.000000    0.000000    0.000000    0.000000
    0.000000    0.010275    0.010277    0.010322    0.010453    0.010608
    0.010781    0.011132    0.011208    0.011551    0.011781    0.012251
 Highest eigenvalues
    2.001545    2.009532    2.022727    2.033086    2.040948    2.067599


........................................................................
.............................. CYCLE   43 ..............................
........................................................................

 iter      E             dE          RMSdq      gap      omega  full diag
   1   -121.2854973 -0.121285E+03  0.376E-02    2.58       0.0  T
   2   -121.2854981 -0.809643E-06  0.206E-02    2.58       1.0  T
   3   -121.2854982 -0.587370E-07  0.376E-03    2.58       3.0  T
   4   -121.2854981  0.416131E-07  0.192E-03    2.58       5.9  T
   5   -121.2854983 -0.220913E-06  0.553E-04    2.58      20.4  T
   6   -121.2854983 -0.373421E-08  0.374E-04    2.58      30.1  T
     SCC iter.                  ...        0 min,  0.645 sec
     gradient                   ...        0 min,  0.111 sec
 * total energy  :  -119.6557898 Eh     change       -0.7887283E-04 Eh
   gradient norm :     0.0021637 Eh/α   predicted     0.0000000E+00 (-100.00%)
   displ. norm   :     0.0376528 α      lambda       -0.4574443E-05
   maximum displ.:     0.0134697 α      in ANC's #1, #33, #7, ...

........................................................................
.............................. CYCLE   44 ..............................
........................................................................

 iter      E             dE          RMSdq      gap      omega  full diag
   1   -121.2854508 -0.121285E+03  0.753E-03    2.57       0.0  T
   2   -121.2854509 -0.893645E-07  0.404E-03    2.57       2.8  T
   3   -121.2854509  0.159792E-07  0.117E-03    2.57       9.6  T
   4   -121.2854509 -0.244521E-07  0.551E-04    2.57      20.4  T
   5   -121.2854509 -0.886997E-08  0.161E-04    2.57      70.0  T
     SCC iter.                  ...        0 min,  0.683 sec
     gradient                   ...        0 min,  0.171 sec
 * total energy  :  -119.6558133 Eh     change       -0.2353756E-04 Eh
   gradient norm :     0.0011019 Eh/α   predicted    -0.1377541E-04 ( -41.47%)
   displ. norm   :     0.2145542 α      lambda       -0.7399921E-04
   maximum displ.:     0.0754080 α      in ANC's #1, #33, #8, ...

........................................................................
.............................. CYCLE   45 ..............................
........................................................................

 iter      E             dE          RMSdq      gap      omega  full diag
   1   -121.2845615 -0.121285E+03  0.348E-02    2.57       0.0  T
   2   -121.2845630 -0.146510E-05  0.195E-02    2.57       1.0  T
   3   -121.2845626  0.447442E-06  0.512E-03    2.57       2.2  T
   4   -121.2845632 -0.662436E-06  0.214E-03    2.57       5.3  T
   5   -121.2845633 -0.114735E-06  0.734E-04    2.57      15.3  T
   6   -121.2845634 -0.966955E-08  0.345E-04    2.57      32.6  T
     SCC iter.                  ...        0 min,  0.621 sec
     gradient                   ...        0 min,  0.111 sec
 * total energy  :  -119.6558616 Eh     change       -0.4831271E-04 Eh
   gradient norm :     0.0032626 Eh/α   predicted    -0.3775747E-04 ( -21.85%)
   displ. norm   :     0.0374632 α      lambda       -0.2254563E-04
   maximum displ.:     0.0174122 α      in ANC's #1, #33, #19, ...

........................................................................
.............................. CYCLE   46 ..............................
........................................................................

 iter      E             dE          RMSdq      gap      omega  full diag
   1   -121.2847533 -0.121285E+03  0.113E-02    2.57       0.0  T
   2   -121.2847536 -0.305951E-06  0.533E-03    2.57       2.1  T
   3   -121.2847536 -0.470637E-08  0.161E-03    2.57       7.0  T
   4   -121.2847536 -0.188734E-07  0.853E-04    2.57      13.2  T
   5   -121.2847536 -0.145156E-07  0.381E-04    2.57      29.5  T
     SCC iter.                  ...        0 min,  0.620 sec
     gradient                   ...        0 min,  0.132 sec
 * total energy  :  -119.6558790 Eh     change       -0.1737697E-04 Eh
   gradient norm :     0.0023209 Eh/α   predicted    -0.1128959E-04 ( -35.03%)
   displ. norm   :     0.1379103 α      lambda       -0.6343660E-04
   maximum displ.:     0.0546909 α      in ANC's #1, #33, #9, ...

........................................................................
.............................. CYCLE   47 ..............................
........................................................................

 iter      E             dE          RMSdq      gap      omega  full diag
   1   -121.2851018 -0.121285E+03  0.183E-02    2.57       0.0  T
   2   -121.2851022 -0.354851E-06  0.106E-02    2.57       1.1  T
   3   -121.2851021  0.878681E-07  0.230E-03    2.57       4.9  T
   4   -121.2851022 -0.138298E-06  0.910E-04    2.57      12.4  T
   5   -121.2851022 -0.137079E-07  0.460E-04    2.57      24.5  T
     SCC iter.                  ...        0 min,  0.515 sec
     gradient                   ...        0 min,  0.115 sec
 * total energy  :  -119.6559212 Eh     change       -0.4214715E-04 Eh
   gradient norm :     0.0018672 Eh/α   predicted    -0.3232173E-04 ( -23.31%)
   displ. norm   :     0.2629288 α      lambda       -0.4228471E-04
   maximum displ.:     0.1109451 α      in ANC's #1, #33, #9, ...

........................................................................
.............................. CYCLE   48 ..............................
........................................................................

 iter      E             dE          RMSdq      gap      omega  full diag
   1   -121.2843713 -0.121284E+03  0.302E-02    2.57       0.0  T
   2   -121.2843719 -0.602189E-06  0.175E-02    2.57       1.0  T
   3   -121.2843716  0.291994E-06  0.336E-03    2.57       3.3  T
   4   -121.2843720 -0.366445E-06  0.157E-03    2.57       7.2  T
   5   -121.2843720 -0.812400E-07  0.686E-04    2.57      16.4  T
   6   -121.2843720 -0.115527E-07  0.287E-04    2.57      39.2  T
     SCC iter.                  ...        0 min,  0.527 sec
     gradient                   ...        0 min,  0.111 sec
 * total energy  :  -119.6559635 Eh     change       -0.4230857E-04 Eh
   gradient norm :     0.0037434 Eh/α   predicted    -0.2179240E-04 ( -48.49%)
   displ. norm   :     0.1943117 α      lambda       -0.5039270E-04
   maximum displ.:     0.0824541 α      in ANC's #1, #9, #33, ...

........................................................................
.............................. CYCLE   49 ..............................
........................................................................

 iter      E             dE          RMSdq      gap      omega  full diag
   1   -121.2841233 -0.121284E+03  0.219E-02    2.57       0.0  T
   2   -121.2841237 -0.426394E-06  0.124E-02    2.58       1.0  T
   3   -121.2841236  0.166738E-06  0.289E-03    2.58       3.9  T
   4   -121.2841238 -0.185705E-06  0.126E-03    2.58       8.9  T
   5   -121.2841238 -0.631435E-07  0.519E-04    2.58      21.7  T
   6   -121.2841238 -0.144101E-07  0.206E-04    2.58      54.6  T
     SCC iter.                  ...        0 min,  0.505 sec
     gradient                   ...        0 min,  0.111 sec
 * total energy  :  -119.6560029 Eh     change       -0.3945733E-04 Eh
   gradient norm :     0.0033632 Eh/α   predicted    -0.2614815E-04 ( -33.73%)
   displ. norm   :     0.2938439 α      lambda       -0.7858623E-04
   maximum displ.:     0.1327070 α      in ANC's #1, #9, #2, ...

........................................................................
.............................. CYCLE   50 ..............................
........................................................................

 iter      E             dE          RMSdq      gap      omega  full diag
   1   -121.2844431 -0.121284E+03  0.316E-02    2.57       0.0  T
   2   -121.2844438 -0.715582E-06  0.182E-02    2.57       1.0  T
   3   -121.2844433  0.485002E-06  0.396E-03    2.57       2.8  T
   4   -121.2844440 -0.611764E-06  0.139E-03    2.57       8.1  T
   5   -121.2844440 -0.643195E-07  0.562E-04    2.57      20.0  T
   6   -121.2844440 -0.137861E-07  0.193E-04    2.57      58.3  T
     SCC iter.                  ...        0 min,  0.756 sec
     gradient                   ...        0 min,  0.111 sec
 * total energy  :  -119.6560531 Eh     change       -0.5015300E-04 Eh
   gradient norm :     0.0026780 Eh/α   predicted    -0.4268671E-04 ( -14.89%)
   displ. norm   :     0.1878182 α      lambda       -0.4409398E-04
   maximum displ.:     0.0879846 α      in ANC's #1, #2, #9, ...

........................................................................
.............................. CYCLE   51 ..............................
........................................................................

 iter      E             dE          RMSdq      gap      omega  full diag
   1   -121.2850111 -0.121285E+03  0.220E-02    2.58       0.0  T
   2   -121.2850115 -0.401492E-06  0.121E-02    2.58       1.0  T
   3   -121.2850114  0.111891E-06  0.287E-03    2.58       3.9  T
   4   -121.2850115 -0.143059E-06  0.134E-03    2.58       8.4  T
   5   -121.2850116 -0.577333E-07  0.447E-04    2.58      25.2  T
   6   -121.2850116 -0.136932E-07  0.163E-04    2.58      68.8  T
     SCC iter.                  ...        0 min,  0.785 sec
     gradient                   ...        0 min,  0.112 sec
 * total energy  :  -119.6560879 Eh     change       -0.3482609E-04 Eh
   gradient norm :     0.0022481 Eh/α   predicted    -0.2282586E-04 ( -34.46%)
   displ. norm   :     0.2906962 α      lambda       -0.6337721E-04
   maximum displ.:     0.1413303 α      in ANC's #1, #2, #33, ...

........................................................................
.............................. CYCLE   52 ..............................
........................................................................

 iter      E             dE          RMSdq      gap      omega  full diag
   1   -121.2854860 -0.121285E+03  0.312E-02    2.58       0.0  T
   2   -121.2854867 -0.652411E-06  0.177E-02    2.58       1.0  T
   3   -121.2854865  0.202149E-06  0.341E-03    2.58       3.3  T
   4   -121.2854868 -0.293422E-06  0.156E-03    2.58       7.2  T
   5   -121.2854869 -0.765095E-07  0.527E-04    2.58      21.3  T
   6   -121.2854869 -0.158200E-07  0.199E-04    2.58      56.6  T
     SCC iter.                  ...        0 min,  0.785 sec
     gradient                   ...        0 min,  0.112 sec
 * total energy  :  -119.6561364 Eh     change       -0.4845602E-04 Eh
   gradient norm :     0.0019421 Eh/α   predicted    -0.3437112E-04 ( -29.07%)
   displ. norm   :     0.4342673 α      lambda       -0.5394888E-04
   maximum displ.:     0.2152979 α      in ANC's #1, #2, #9, ...

........................................................................
.............................. CYCLE   53 ..............................
........................................................................

 iter      E             dE          RMSdq      gap      omega  full diag
   1   -121.2853418 -0.121285E+03  0.464E-02    2.58       0.0  T
   2   -121.2853433 -0.150527E-05  0.264E-02    2.58       1.0  T
   3   -121.2853428  0.543413E-06  0.519E-03    2.58       2.2  T
   4   -121.2853435 -0.776310E-06  0.229E-03    2.58       4.9  T
   5   -121.2853437 -0.157938E-06  0.800E-04    2.58      14.1  T
   6   -121.2853437 -0.336373E-07  0.294E-04    2.58      38.2  T
     SCC iter.                  ...        0 min,  0.720 sec
     gradient                   ...        0 min,  0.145 sec
 * total energy  :  -119.6561869 Eh     change       -0.5052038E-04 Eh
   gradient norm :     0.0027872 Eh/α   predicted    -0.2923802E-04 ( -42.13%)
   displ. norm   :     0.1369995 α      lambda       -0.3115791E-04
   maximum displ.:     0.0716700 α      in ANC's #1, #2, #9, ...

........................................................................
.............................. CYCLE   54 ..............................
........................................................................

 iter      E             dE          RMSdq      gap      omega  full diag
   1   -121.2859702 -0.121286E+03  0.146E-02    2.58       0.0  T
   2   -121.2859704 -0.137836E-06  0.834E-03    2.58       1.3  T
   3   -121.2859703  0.471238E-07  0.143E-03    2.58       7.8  T
   4   -121.2859704 -0.652930E-07  0.750E-04    2.58      15.0  T
   5   -121.2859704 -0.212523E-07  0.265E-04    2.58      42.5  T
     SCC iter.                  ...        0 min,  0.697 sec
     gradient                   ...        0 min,  0.143 sec
 * total energy  :  -119.6562113 Eh     change       -0.2436719E-04 Eh
   gradient norm :     0.0024841 Eh/α   predicted    -0.1587172E-04 ( -34.86%)
   displ. norm   :     0.5231150 α      lambda       -0.9323091E-04
   maximum displ.:     0.2697506 α      in ANC's #1, #2, #9, ...

........................................................................
.............................. CYCLE   55 ..............................
........................................................................

 iter      E             dE          RMSdq      gap      omega  full diag
   1   -121.2821956 -0.121282E+03  0.508E-02    2.58       0.0  T
   2   -121.2821986 -0.299148E-05  0.289E-02    2.58       1.0  T
   3   -121.2821983  0.296153E-06  0.650E-03    2.58       1.7  T
   4   -121.2821990 -0.721378E-06  0.253E-03    2.58       4.4  T
   5   -121.2821990 -0.294874E-07  0.136E-03    2.58       8.3  T
   6   -121.2821991 -0.917085E-07  0.454E-04    2.58      24.8  T
   7   -121.2821991 -0.176833E-08  0.299E-04    2.58      37.6  T
     SCC iter.                  ...        0 min,  0.941 sec
     gradient                   ...        0 min,  0.148 sec
 * total energy  :  -119.6562305 Eh     change       -0.1928300E-04 Eh
   gradient norm :     0.0052503 Eh/α   predicted    -0.5937441E-04 ( 207.91%)
   displ. norm   :     0.0986968 α      lambda       -0.9328861E-04
   maximum displ.:     0.0400384 α      in ANC's #34, #33, #31, ...

........................................................................
.............................. CYCLE   56 ..............................
........................................................................

 iter      E             dE          RMSdq      gap      omega  full diag
   1   -121.2858818 -0.121286E+03  0.159E-02    2.58       0.0  T
   2   -121.2858826 -0.826362E-06  0.904E-03    2.58       1.2  T
   3   -121.2858826 -0.993874E-08  0.256E-03    2.59       4.4  T
   4   -121.2858827 -0.601390E-07  0.930E-04    2.59      12.1  T
   5   -121.2858827  0.811440E-09  0.640E-04    2.59      17.6  T
     SCC iter.                  ...        0 min,  0.541 sec
     gradient                   ...        0 min,  0.112 sec
 * total energy  :  -119.6562797 Eh     change       -0.4918554E-04 Eh
   gradient norm :     0.0019262 Eh/α   predicted    -0.4710358E-04 (  -4.23%)
   displ. norm   :     0.2124322 α      lambda       -0.2241146E-04
   maximum displ.:     0.1213395 α      in ANC's #1, #2, #4, ...

........................................................................
.............................. CYCLE   57 ..............................
........................................................................

 iter      E             dE          RMSdq      gap      omega  full diag
   1   -121.2865114 -0.121287E+03  0.193E-02    2.59       0.0  T
   2   -121.2865117 -0.278439E-06  0.109E-02    2.59       1.0  T
   3   -121.2865117  0.552572E-08  0.208E-03    2.59       5.4  T
   4   -121.2865118 -0.562125E-07  0.874E-04    2.59      12.9  T
   5   -121.2865118 -0.621172E-08  0.403E-04    2.59      27.9  T
     SCC iter.                  ...        0 min,  0.644 sec
     gradient                   ...        0 min,  0.143 sec
 * total energy  :  -119.6563088 Eh     change       -0.2909894E-04 Eh
   gradient norm :     0.0018853 Eh/α   predicted    -0.1143229E-04 ( -60.71%)
   displ. norm   :     0.3510942 α      lambda       -0.5008198E-04
   maximum displ.:     0.2116629 α      in ANC's #1, #4, #2, ...

........................................................................
.............................. CYCLE   58 ..............................
........................................................................

 iter      E             dE          RMSdq      gap      omega  full diag
   1   -121.2865752 -0.121287E+03  0.330E-02    2.59       0.0  T
   2   -121.2865760 -0.791776E-06  0.184E-02    2.59       1.0  T
   3   -121.2865760 -0.540924E-07  0.340E-03    2.59       3.3  T
   4   -121.2865761 -0.841551E-07  0.147E-03    2.59       7.7  T
   5   -121.2865761 -0.250749E-07  0.556E-04    2.59      20.2  T
   6   -121.2865761 -0.223570E-07  0.212E-04    2.59      53.0  T
     SCC iter.                  ...        0 min,  0.542 sec
     gradient                   ...        0 min,  0.111 sec
 * total energy  :  -119.6563687 Eh     change       -0.5987198E-04 Eh
   gradient norm :     0.0016690 Eh/α   predicted    -0.2641691E-04 ( -55.88%)
   displ. norm   :     0.4812701 α      lambda       -0.5360587E-04
   maximum displ.:     0.2910011 α      in ANC's #1, #4, #2, ...

........................................................................
.............................. CYCLE   59 ..............................
........................................................................

 iter      E             dE          RMSdq      gap      omega  full diag
   1   -121.2855308 -0.121286E+03  0.442E-02    2.60       0.0  T
   2   -121.2855320 -0.122549E-05  0.250E-02    2.60       1.0  T
   3   -121.2855320  0.331600E-07  0.397E-03    2.60       2.8  T
   4   -121.2855322 -0.199211E-06  0.199E-03    2.60       5.7  T
   5   -121.2855323 -0.112099E-06  0.755E-04    2.60      14.9  T
   6   -121.2855323 -0.302500E-07  0.285E-04    2.60      39.5  T
[...]
       116                         -0.3303261              -8.9886
       117                         -0.3269894              -8.8978
       118                         -0.2987382              -8.1291
       119                         -0.2628132              -7.1515
       120                         -0.2511601              -6.8344
       ...                                ...                  ...
       217                          0.9752720              26.5385
      -------------------------------------------------------------
                  HL-Gap            0.0977116 Eh            2.6589 eV
             Fermi-level           -0.4341434 Eh          -11.8136 eV

     #   Z          covCN         q      C6AA      α(0)
     1   6 C        3.756    -0.123    22.908     6.824
     2   6 C        3.877     0.042    19.830     6.331
     3   6 C        3.754    -0.131    23.077     6.850
     4   7 N        2.678    -0.143    24.106     7.292
     5   6 C        3.952     0.048    19.710     6.308
     6   6 C        3.755    -0.119    22.838     6.814
     7   6 C        3.754    -0.120    22.851     6.816
     8  15 P        4.465     0.302   147.513    21.817
     9  16 S        1.899    -0.046   142.968    20.125
    10  16 S        2.067    -0.034   142.441    20.087
    11   6 C        2.963     0.039    27.123     8.542
    12   6 C        3.007    -0.031    28.749     8.795
    13   6 C        2.918    -0.016    28.415     8.741
    14   6 C        2.919    -0.019    28.478     8.751
    15   6 C        2.926    -0.020    28.499     8.755
    16   6 C        2.982    -0.031    28.756     8.796
    17   6 C        3.335     0.490    17.245     6.578
    18   9 F        0.792    -0.192    11.150     3.944
    19   9 F        0.791    -0.195    11.185     3.951
    20   9 F        0.791    -0.218    11.426     3.993
    21   7 N        2.681    -0.129    23.811     7.247
    22   6 C        3.831    -0.033    21.148     6.543
    23   6 C        3.060     0.052    26.771     8.485
    24   6 C        2.925    -0.055    29.356     8.885
    25   6 C        2.921    -0.030    28.746     8.792
    26   6 C        2.916    -0.038    28.934     8.821
    27   6 C        3.027     0.014    27.662     8.627
    28   6 C        3.014    -0.010    28.258     8.720
    29   6 C        3.970     0.018    20.196     6.385
    30   6 C        3.853    -0.059    21.599     6.610
    31   6 C        3.831    -0.065    21.730     6.633
    32   6 C        3.853    -0.057    21.568     6.605
    33   6 C        3.833    -0.064    21.699     6.627
    34   6 C        3.021     0.013    27.711     8.635
    35   6 C        2.916    -0.036    28.887     8.813
    36   6 C        2.922    -0.026    28.659     8.779
    37   6 C        2.923    -0.046    29.141     8.853
    38   6 C        3.200     0.050    26.337     8.363
    39   6 C        3.032    -0.010    28.237     8.716
    40   7 N        2.682    -0.124    23.704     7.231
    41   6 C        3.775    -0.038    21.278     6.572
    42   1 H        0.925     0.053     2.282     2.363
    43   1 H        0.925     0.052     2.293     2.368
    44   1 H        0.925     0.072     2.067     2.248
    45   1 H        0.924     0.068     2.106     2.270
    46   1 H        0.925     0.067     2.124     2.279
    47   1 H        0.925     0.059     2.208     2.324
    48   1 H        0.925     0.066     2.134     2.285
    49   1 H        0.924     0.051     2.312     2.378
    50   1 H        0.925     0.060     2.204     2.322
    51   1 H        0.925     0.044     2.394     2.420
    52   1 H        0.925     0.060     2.193     2.316
    53   1 H        0.925     0.064     2.152     2.294
    54   1 H        0.925     0.046     2.367     2.406
    55   1 H        0.925     0.059     2.206     2.323
    56   1 H        0.926     0.066     2.134     2.284
    57   1 H        0.926     0.072     2.068     2.249
    58   1 H        0.926     0.076     2.024     2.225
    59   1 H        0.926     0.082     1.958     2.188
    60   1 H        0.924     0.057     2.234     2.337
    61   1 H        0.925     0.060     2.194     2.316
    62   1 H        0.925     0.062     2.179     2.309
    63   1 H        0.926     0.043     2.409     2.427
    64   1 H        0.926     0.054     2.274     2.358
    65   1 H        0.926     0.056     2.248     2.345
    66   1 H        0.924     0.036     2.499     2.472
    67   1 H        0.925     0.051     2.313     2.378
    68   1 H        0.925     0.056     2.244     2.343
    69   1 H        0.924     0.059     2.207     2.323
    70   1 H        0.925     0.049     2.329     2.386
    71   1 H        0.924     0.032     2.557     2.501
    72   1 H        0.924     0.060     2.200     2.320
    73   1 H        0.925     0.050     2.317     2.381
    74   1 H        0.926     0.056     2.244     2.342
    75   1 H        0.926     0.059     2.215     2.327
    76   1 H        0.926     0.043     2.405     2.425
    77   1 H        0.925     0.064     2.148     2.292
    78   1 H        0.924     0.064     2.153     2.295
    79   1 H        0.924     0.063     2.165     2.301

 Mol. C6AA /au·bohr⁶  :      76624.384109
 Mol. C8AA /au·bohr⁸  :    2022943.576037
 Mol. α(0) /au        :        433.775733


Wiberg/Mayer (AO) data.
largest (>0.10) Wiberg bond orders for each atom

 ---------------------------------------------------------------------------
     #   Z sym  total        # sym  WBO       # sym  WBO       # sym  WBO
 ---------------------------------------------------------------------------
     1   6 C    3.988 --     2 C    1.009    43 H    0.982    44 H    0.978
                            42 H    0.961
     2   6 C    3.955 --     1 C    1.009     3 C    1.004    45 H    0.952
                             4 N    0.936
     3   6 C    3.989 --     2 C    1.004    47 H    0.980    48 H    0.979
                            46 H    0.963
     4   7 N    3.400 --     8 P    1.250     5 C    0.936     2 C    0.936
     5   6 C    3.958 --     6 C    1.005     7 C    1.002    49 H    0.938
                             4 N    0.936
     6   6 C    3.991 --     5 C    1.005    52 H    0.981    50 H    0.980
                            51 H    0.979
     7   6 C    3.986 --     5 C    1.002    53 H    0.979    55 H    0.978
                            54 H    0.977
     8  15 P    5.116 --     4 N    1.250    40 N    1.237    21 N    1.227
                             9 S    0.964
     9  16 S    2.475 --    10 S    1.176     8 P    0.964
    10  16 S    2.423 --     9 S    1.176    11 C    1.004
    11   6 C    3.964 --    12 C    1.387    16 C    1.379    10 S    1.004
                            14 C    0.101
    12   6 C    3.986 --    13 C    1.449    11 C    1.387    56 H    0.961
                            15 C    0.105
    13   6 C    3.984 --    12 C    1.449    14 C    1.427    57 H    0.965
                            16 C    0.103
    14   6 C    3.980 --    15 C    1.442    13 C    1.427    58 H    0.966
                            11 C    0.101
    15   6 C    3.985 --    14 C    1.442    16 C    1.408    59 H    0.962
                            12 C    0.105
    16   6 C    3.972 --    15 C    1.408    11 C    1.379    17 C    0.949
                            13 C    0.103
    17   6 C    3.829 --    18 F    0.964    19 F    0.954    16 C    0.949
                            20 F    0.924
    18   9 F    1.089 --    17 C    0.964
    19   9 F    1.091 --    17 C    0.954
    20   9 F    1.060 --    17 C    0.924
    21   7 N    3.411 --     8 P    1.227    22 C    0.974    23 C    0.957
    22   6 C    3.964 --    60 H    0.976    21 N    0.974    61 H    0.971
                            62 H    0.965
    23   6 C    3.950 --    28 C    1.405    24 C    1.369    21 N    0.957
    24   6 C    3.986 --    25 C    1.459    23 C    1.369    63 H    0.959
                            27 C    0.106
    25   6 C    3.986 --    24 C    1.459    26 C    1.415    64 H    0.969
                            28 C    0.102
    26   6 C    3.988 --    27 C    1.443    25 C    1.415    65 H    0.967
    27   6 C    3.985 --    26 C    1.443    28 C    1.347    31 C    1.016
                            24 C    0.106
    28   6 C    3.983 --    23 C    1.405    27 C    1.347    29 C    0.990
                            25 C    0.102
    29   6 C    3.989 --    39 C    0.991    28 C    0.990    32 C    0.959
                            30 C    0.956
    30   6 C    3.993 --    31 C    1.003    66 H    0.978    67 H    0.977
                            29 C    0.956
    31   6 C    3.995 --    27 C    1.016    30 C    1.003    68 H    0.966
                            69 H    0.956
    32   6 C    3.994 --    33 C    1.002    70 H    0.978    71 H    0.977
                            29 C    0.959
    33   6 C    3.995 --    34 C    1.014    32 C    1.002    73 H    0.966
                            72 H    0.957
    34   6 C    3.985 --    35 C    1.443    39 C    1.348    33 C    1.014
                            37 C    0.106
    35   6 C    3.988 --    34 C    1.443    36 C    1.414    74 H    0.967
    36   6 C    3.986 --    37 C    1.455    35 C    1.414    75 H    0.968
                            39 C    0.103
    37   6 C    3.989 --    36 C    1.455    38 C    1.375    76 H    0.964
                            34 C    0.106
    38   6 C    3.952 --    39 C    1.403    37 C    1.375    40 N    0.953
    39   6 C    3.983 --    38 C    1.403    34 C    1.348    29 C    0.991
                            36 C    0.103
    40   7 N    3.419 --     8 P    1.237    41 C    0.972    38 C    0.953
    41   6 C    3.960 --    78 H    0.978    79 H    0.975    40 N    0.972
                            77 H    0.963
    42   1 H    0.997 --     1 C    0.961
    43   1 H    0.997 --     1 C    0.982
    44   1 H    0.994 --     1 C    0.978
    45   1 H    0.994 --     2 C    0.952
    46   1 H    0.995 --     3 C    0.963
    47   1 H    0.996 --     3 C    0.980
    48   1 H    0.994 --     3 C    0.979
    49   1 H    0.997 --     5 C    0.938
    50   1 H    0.996 --     6 C    0.980
    51   1 H    0.998 --     6 C    0.979
    52   1 H    0.996 --     6 C    0.981
    53   1 H    0.995 --     7 C    0.979
    54   1 H    0.998 --     7 C    0.977
    55   1 H    0.996 --     7 C    0.978
    56   1 H    0.995 --    12 C    0.961
    57   1 H    0.994 --    13 C    0.965
    58   1 H    0.993 --    14 C    0.966
    59   1 H    0.993 --    15 C    0.962
    60   1 H    0.996 --    22 C    0.976
    61   1 H    0.996 --    22 C    0.971
    62   1 H    0.995 --    22 C    0.965
    63   1 H    0.997 --    24 C    0.959
    64   1 H    0.996 --    25 C    0.969
    65   1 H    0.996 --    26 C    0.967
    66   1 H    0.999 --    30 C    0.978
    67   1 H    0.997 --    30 C    0.977
    68   1 H    0.996 --    31 C    0.966
    69   1 H    0.996 --    31 C    0.956
    70   1 H    0.997 --    32 C    0.978
    71   1 H    0.999 --    32 C    0.977
    72   1 H    0.996 --    33 C    0.957
    73   1 H    0.996 --    33 C    0.966
    74   1 H    0.996 --    35 C    0.967
    75   1 H    0.995 --    36 C    0.968
    76   1 H    0.997 --    37 C    0.964
    77   1 H    0.995 --    41 C    0.963
    78   1 H    0.995 --    41 C    0.978
    79   1 H    0.995 --    41 C    0.975
 ---------------------------------------------------------------------------

Topologies differ in total number of bonds
Writing topology from bond orders to xtbtopo.mol

molecular dipole:
                 x           y           z       tot (Debye)
 q only:       -1.194      -0.441       0.552
   full:       -1.153      -0.503       0.657       3.607
molecular quadrupole (traceless):
                xx          xy          yy          xz          yz          zz
 q only:      -18.013      -3.236      21.901       8.318      17.004      -3.887
  q+dip:      -17.274      -4.822      21.125       7.308      16.183      -3.850
   full:      -18.470      -2.171      22.196       8.847      16.615      -3.726

           -------------------------------------------------
          |                Geometry Summary                 |
           -------------------------------------------------

      molecular mass/u    :      616.7639532
   center of mass at/Å    :        0.4743908       0.4162017      -0.0379082
  moments of inertia/u·Å² :        0.4663757E+04   0.6210011E+04   0.7568574E+04
rotational constants/cm⁻¹ :        0.3614604E-02   0.2714590E-02   0.2227320E-02

 * 75 selected distances

     #   Z          #   Z                                           value/Å
     1   6 C        2   6 C                                       1.5226673
     2   6 C        3   6 C                                       1.5270351
     2   6 C        4   7 N                                       1.4738926
     4   7 N        5   6 C                                       1.4749396
     5   6 C        6   6 C                                       1.5261733
     5   6 C        7   6 C                                       1.5289358
     4   7 N        8  15 P                                       1.6538520
     8  15 P        9  16 S                                       2.1409979 (max)
     9  16 S       10  16 S                                       2.0360412
    11   6 C       12   6 C                                       1.3922568
    12   6 C       13   6 C                                       1.3813041
    13   6 C       14   6 C                                       1.3852708
    14   6 C       15   6 C                                       1.3823914
    11   6 C       16   6 C                                       1.3948464
    15   6 C       16   6 C                                       1.3925642
    17   6 C       18   9 F                                       1.3325870
    17   6 C       19   9 F                                       1.3385823
    17   6 C       20   9 F                                       1.3567903
     8  15 P       21   7 N                                       1.6648558
    21   7 N       22   6 C                                       1.4592852
    23   6 C       24   6 C                                       1.3980377
    24   6 C       25   6 C                                       1.3804425
    25   6 C       26   6 C                                       1.3861649
    26   6 C       27   6 C                                       1.3776086
    23   6 C       28   6 C                                       1.3854820
    27   6 C       28   6 C                                       1.4017569
    30   6 C       31   6 C                                       1.5297969
    32   6 C       33   6 C                                       1.5367387
    34   6 C       35   6 C                                       1.3787896
    35   6 C       36   6 C                                       1.3894116
    36   6 C       37   6 C                                       1.3826532
    37   6 C       38   6 C                                       1.3938903
    34   6 C       39   6 C                                       1.3968775
    38   6 C       39   6 C                                       1.3786051
     8  15 P       40   7 N                                       1.6519710
    38   6 C       40   7 N                                       1.4347493
    40   7 N       41   6 C                                       1.4499754
     1   6 C       42   1 H                                       1.0888193
     1   6 C       43   1 H                                       1.0868869
     1   6 C       44   1 H                                       1.0865019
     2   6 C       45   1 H                                       1.0916461
     3   6 C       46   1 H                                       1.0863258
     3   6 C       47   1 H                                       1.0855260
     3   6 C       48   1 H                                       1.0869969
     5   6 C       49   1 H                                       1.0952689
     6   6 C       50   1 H                                       1.0870888
     6   6 C       51   1 H                                       1.0876992
     6   6 C       52   1 H                                       1.0866546
     7   6 C       53   1 H                                       1.0867946
     7   6 C       54   1 H                                       1.0866754
     7   6 C       55   1 H                                       1.0865815
    12   6 C       56   1 H                                       1.0788699
    13   6 C       57   1 H                                       1.0787086
    14   6 C       58   1 H                                       1.0779109 (min)
    15   6 C       59   1 H                                       1.0788391
    22   6 C       60   1 H                                       1.0920421
    22   6 C       61   1 H                                       1.0895920
    22   6 C       62   1 H                                       1.0894311
    24   6 C       63   1 H                                       1.0791655
    25   6 C       64   1 H                                       1.0785606
    26   6 C       65   1 H                                       1.0784431
    30   6 C       66   1 H                                       1.0917351
    30   6 C       67   1 H                                       1.0866316
    31   6 C       68   1 H                                       1.0895050
    31   6 C       69   1 H                                       1.0921817
    32   6 C       70   1 H                                       1.0871832
    32   6 C       71   1 H                                       1.0921382
    33   6 C       72   1 H                                       1.0917805
    33   6 C       73   1 H                                       1.0901489
    35   6 C       74   1 H                                       1.0785609
    36   6 C       75   1 H                                       1.0782989
    37   6 C       76   1 H                                       1.0805786
    41   6 C       77   1 H                                       1.0865581
    41   6 C       78   1 H                                       1.0914133
    41   6 C       79   1 H                                       1.0919314

 * 7 distinct bonds (by element types)

   Z      Z             #   av. dist./Å        max./Å        min./Å
   1 H    6 C          38     1.0863072     1.0952689     1.0779109
   6 C    6 C          24     1.4229042     1.5367387     1.3776086
   6 C    7 N           5     1.4585684     1.4749396     1.4347493
   6 C    9 F           3     1.3426532     1.3567903     1.3325870
   7 N   15 P           3     1.6568929     1.6648558     1.6519710
  15 P   16 S           1     2.1409979     2.1409979     2.1409979
  16 S   16 S           1     2.0360412     2.0360412     2.0360412


optimized geometry written to: xtbopt.xyz


           -------------------------------------------------
          | TOTAL ENERGY             -119.656933180644 Eh   |
          | GRADIENT NORM               0.000036955787 Eh/α |
          | HOMO-LUMO GAP               2.658867275675 eV   |
           -------------------------------------------------

------------------------------------------------------------------------
 * finished run on 2024/12/16 at 16:18:37.902     
------------------------------------------------------------------------
 total:
 * wall-time:     0 d,  0 h,  1 min, 37.541 sec
 *  cpu-time:     0 d,  0 h, 12 min, 48.447 sec
 * ratio c/w:     7.878 speedup
 SCF:
 * wall-time:     0 d,  0 h,  0 min,  2.042 sec
 *  cpu-time:     0 d,  0 h,  0 min, 16.251 sec
 * ratio c/w:     7.957 speedup
 ANC optimizer:
 * wall-time:     0 d,  0 h,  1 min, 35.212 sec
 *  cpu-time:     0 d,  0 h, 12 min, 30.633 sec
 * ratio c/w:     7.884 speedup

