      -----------------------------------------------------------      
     |                   =====================                   |     
     |                           x T B                           |     
     |                   =====================                   |     
     |                         S. Grimme                         |     
     |          Mulliken Center for Theoretical Chemistry        |     
     |                    University of Bonn                     |     
      -----------------------------------------------------------      

   * xtb version 6.7.1 (edcfbbe) compiled by 'conda@3ef47c1a292c' on 2024-11-25

   xtb is free software: you can redistribute it and/or modify it under
   the terms of the GNU Lesser General Public License as published by
   the Free Software Foundation, either version 3 of the License, or
   (at your option) any later version.
   
   xtb is distributed in the hope that it will be useful,
   but WITHOUT ANY WARRANTY; without even the implied warranty of
   MERCHANTABILITY or FITNESS FOR A PARTICULAR PURPOSE.  See the
   GNU Lesser General Public License for more details.
   
   Cite this work as:
   * C. Bannwarth, E. Caldeweyher, S. Ehlert, A. Hansen, P. Pracht,
     J. Seibert, S. Spicher, S. Grimme, WIREs Comput. Mol. Sci., 2020, 11,
     e01493. DOI: 10.1002/wcms.1493
   
   for GFN2-xTB:
   * C. Bannwarth, S. Ehlert and S. Grimme., J. Chem. Theory Comput., 2019,
     15, 1652-1671. DOI: 10.1021/acs.jctc.8b01176
   for GFN1-xTB:
   * S. Grimme, C. Bannwarth, P. Shushkov, J. Chem. Theory Comput., 2017,
     13, 1989-2009. DOI: 10.1021/acs.jctc.7b00118
   for GFN0-xTB:
   * P. Pracht, E. Caldeweyher, S. Ehlert, S. Grimme, ChemRxiv, 2019, preprint.
     DOI: 10.26434/chemrxiv.8326202.v1
   for GFN-FF:
   * S. Spicher and S. Grimme, Angew. Chem. Int. Ed., 2020, 59, 15665-15673.
     DOI: 10.1002/anie.202004239
   
   for ALPB and GBSA implicit solvation:
   * S. Ehlert, M. Stahn, S. Spicher, S. Grimme, J. Chem. Theory Comput.,
     2021, 17, 4250-4261. DOI: 10.1021/acs.jctc.1c00471
   
   for ddCOSMO and CPCM-X implicit solvation:
   * M. Stahn, S. Ehlert, S. Grimme, J. Phys. Chem. A,
     2023, XX, XXXX-XXXX. DOI: 10.1021/acs.jpca.3c04382
   
   for DFT-D4:
   * E. Caldeweyher, C. Bannwarth and S. Grimme, J. Chem. Phys., 2017,
     147, 034112. DOI: 10.1063/1.4993215
   * E. Caldeweyher, S. Ehlert, A. Hansen, H. Neugebauer, S. Spicher,
     C. Bannwarth and S. Grimme, J. Chem. Phys., 2019, 150, 154122.
     DOI: 10.1063/1.5090222
   * E. Caldeweyher, J.-M. Mewes, S. Ehlert and S. Grimme, Phys. Chem. Chem. Phys.
     2020, 22, 8499-8512. DOI: 10.1039/D0CP00502A
   
   for sTDA-xTB:
   * S. Grimme and C. Bannwarth, J. Chem. Phys., 2016, 145, 054103.
     DOI: 10.1063/1.4959605
   
   in the mass-spec context:
   * V. Asgeirsson, C. Bauer and S. Grimme, Chem. Sci., 2017, 8, 4879.
     DOI: 10.1039/c7sc00601b
   * J. Koopman and S. Grimme, ACS Omega 2019, 4, 12, 15120-15133.
     DOI: 10.1021/acsomega.9b02011
   
   for metadynamics refer to:
   * S. Grimme, J. Chem. Theory Comput., 2019, 155, 2847-2862
     DOI: 10.1021/acs.jctc.9b00143
   
   for SPH calculations refer to:
   * S. Spicher and S. Grimme, J. Chem. Theory Comput., 2021, 17, 1701-1714
     DOI: 10.1021/acs.jctc.0c01306
   
   for ONIOM refer to:
   * C. Plett, A. Katbashev, S. Ehlert, S. Grimme, M. Bursch,
     Phys. Chem. Chem. Phys., 2023, 25, 17860-17868. DOI: 10.1039/D3CP02178E
   
   for DIPRO refer to:
   * J. Kohn, N. Gildemeister, S. Grimme, D. Fazzi, A. Hansen,
     J. Chem. Phys., 2023, just accepted.
   
   for PTB refer to:
   * S. Grimme, M. Mueller, A. Hansen, J. Chem. Phys., 2023, 158, 124111.
     DOI: 10.1063/5.0137838
   
   with help from (in alphabetical order)
   P. Atkinson, C. Bannwarth, F. Bohle, G. Brandenburg, E. Caldeweyher
   M. Checinski, S. Dohm, S. Ehlert, S. Ehrlich, I. Gerasimov, C. Hölzer
   A. Katbashev, J. Kohn, J. Koopman, C. Lavigne, S. Lehtola, F. März, M. Müller,
   F. Musil, H. Neugebauer, J. Pisarek, C. Plett, P. Pracht, F. Pultar,
   J. Seibert, P. Shushkov, S. Spicher, M. Stahn, M. Steiner, T. Strunk,
   J. Stückrath, T. Rose, and J. Unsleber
   
 * started run on 2024/12/16 at 17:54:29.450     
   ID    Z sym.   atoms
    1    6 C      1-3, 5-12, 16-21, 23-43, 45
    2    7 N      4, 22, 44
    3   15 P      13
    4   16 S      14, 15
    5    1 H      46-84

           -------------------------------------------------
          |                Calculation Setup                |
           -------------------------------------------------

          program call               : xtb --gfn2 --opt extreme -P 8 --charge 1 molecule.xyz
          hostname                   : node05
          coordinate file            : molecule.xyz
          omp threads                :                     8


           -------------------------------------------------
          |                 G F N 2 - x T B                 |
           -------------------------------------------------

        Reference                      10.1021/acs.jctc.8b01176
      * Hamiltonian:
        H0-scaling (s, p, d)           1.850000    2.230000    2.230000
        zeta-weighting                 0.500000
      * Dispersion:
        s8                             2.700000
        a1                             0.520000
        a2                             5.000000
        s9                             5.000000
      * Repulsion:
        kExp                           1.500000    1.000000
        rExp                           1.000000
      * Coulomb:
        alpha                          2.000000
        third order                    shell-resolved
        anisotropic                    true
        a3                             3.000000
        a5                             4.000000
        cn-shift                       1.200000
        cn-exp                         4.000000
        max-rad                        5.000000


          ...................................................
          :                      SETUP                      :
          :.................................................:
          :  # basis functions                 237          :
          :  # atomic orbitals                 234          :
          :  # shells                          132          :
          :  # electrons                       226          :
          :  max. iterations                   250          :
          :  Hamiltonian                  GFN2-xTB          :
          :  restarted?                      false          :
          :  GBSA solvation                  false          :
          :  PC potential                    false          :
          :  electronic temp.          300.0000000     K    :
          :  accuracy                    1.0000000          :
          :  -> integral cutoff          0.2500000E+02      :
          :  -> integral neglect         0.1000000E-07      :
          :  -> SCF convergence          0.1000000E-05 Eh   :
          :  -> wf. convergence          0.1000000E-03 e    :
          :  Broyden damping             0.4000000          :
          :  net charge                          1          :
          :  unpaired electrons                  0          :
          ...................................................

 iter      E             dE          RMSdq      gap      omega  full diag
   1   -122.6253067 -0.122625E+03  0.423E+00    1.74       0.0  T
   2   -122.7826782 -0.157372E+00  0.258E+00    2.04       1.0  T
   3   -122.7543579  0.283203E-01  0.128E+00    1.91       1.0  T
   4   -122.7874037 -0.330457E-01  0.608E-01    1.62       1.0  T
   5   -122.8108491 -0.234454E-01  0.265E-01    1.73       1.0  T
   6   -122.8132467 -0.239755E-02  0.142E-01    1.70       1.0  T
   7   -122.8149458 -0.169917E-02  0.459E-02    1.72       1.0  T
   8   -122.8149860 -0.401236E-04  0.225E-02    1.73       1.0  T
   9   -122.8149923 -0.637843E-05  0.112E-02    1.72       1.0  T
  10   -122.8149936 -0.124836E-05  0.666E-03    1.72       1.6  T
  11   -122.8149945 -0.872267E-06  0.351E-03    1.72       3.1  T
  12   -122.8149947 -0.233207E-06  0.214E-03    1.72       5.1  T
  13   -122.8149947 -0.339372E-07  0.116E-03    1.72       9.4  T
  14   -122.8149948 -0.364985E-07  0.492E-04    1.72      22.2  T
  15   -122.8149948 -0.143852E-08  0.250E-04    1.72      43.6  T

   *** convergence criteria satisfied after 15 iterations ***

         #    Occupation            Energy/Eh            Energy/eV
      -------------------------------------------------------------
         1        2.0000           -0.8585389             -23.3620
       ...           ...                  ...                  ...
       107        2.0000           -0.4945605             -13.4577
       108        2.0000           -0.4938081             -13.4372
       109        2.0000           -0.4922742             -13.3955
       110        2.0000           -0.4832717             -13.1505
       111        2.0000           -0.4824194             -13.1273
       112        2.0000           -0.4662292             -12.6867
       113        2.0000           -0.4525424             -12.3143 (HOMO)
       114                         -0.3892463             -10.5919 (LUMO)
       115                         -0.3692359             -10.0474
       116                         -0.3563371              -9.6964
       117                         -0.3480215              -9.4701
       118                         -0.3358133              -9.1379
       ...                                ...                  ...
       234                          1.0935986              29.7583
      -------------------------------------------------------------
                  HL-Gap            0.0632961 Eh            1.7224 eV
             Fermi-level           -0.4208943 Eh          -11.4531 eV

 SCC (total)                   0 d,  0 h,  0 min,  2.102 sec
 SCC setup                      ...        0 min,  0.000 sec (  0.016%)
 Dispersion                     ...        0 min,  0.001 sec (  0.068%)
 classical contributions        ...        0 min,  0.000 sec (  0.005%)
 integral evaluation            ...        0 min,  0.006 sec (  0.309%)
 iterations                     ...        0 min,  1.965 sec ( 93.493%)
 molecular gradient             ...        0 min,  0.124 sec (  5.884%)
 printout                       ...        0 min,  0.005 sec (  0.224%)

         :::::::::::::::::::::::::::::::::::::::::::::::::::::
         ::                     SUMMARY                     ::
         :::::::::::::::::::::::::::::::::::::::::::::::::::::
         :: total energy            -120.887669148456 Eh    ::
         :: gradient norm              0.134213579939 Eh/a0 ::
         :: HOMO-LUMO gap              1.722373578135 eV    ::
         ::.................................................::
         :: SCC energy              -122.807828747915 Eh    ::
         :: -> isotropic ES            0.076598881109 Eh    ::
         :: -> anisotropic ES          0.002641086463 Eh    ::
         :: -> anisotropic XC          0.077591410964 Eh    ::
         :: -> dispersion             -0.134018683777 Eh    ::
         :: repulsion energy           1.920159599458 Eh    ::
         :: add. restraining           0.000000000000 Eh    ::
         :: total charge               1.000000000000 e     ::
         :::::::::::::::::::::::::::::::::::::::::::::::::::::

      ----------------------------------------------------------- 
     |                   =====================                   |
     |                        A N C O P T                        |
     |                   =====================                   |
     |               Approximate Normal Coordinate               |
     |                Rational Function Optimizer                |
      ----------------------------------------------------------- 
      ----------------------------------------------------------- 
     |                   =====================                   |
     |                        A N C O P T                        |
     |                   =====================                   |
     |               Approximate Normal Coordinate               |
     |                Rational Function Optimizer                |
      ----------------------------------------------------------- 

          ...................................................
          :                      SETUP                      :
          :.................................................:
          :   optimization level           extreme          :
          :   max. optcycles                  1680          :
          :   ANC micro-cycles                  20          :
          :   degrees of freedom               246          :
          :.................................................:
          :   RF solver                   davidson          :
          :   write xtbopt.log                true          :
          :   linear?                        false          :
          :   energy convergence         0.5000000E-07 Eh   :
          :   grad. convergence          0.5000000E-04 Eh/α :
          :   maxmium RF displ.          1.0000000          :
          :   Hlow (freq-cutoff)         0.1000000E-01      :
          :   Hmax (freq-cutoff)         5.0000000          :
          :   S6 in model hess.         20.0000000          :
          ...................................................

generating ANC from exact Hessian ...
Using Lindh-Hessian (1995)
 Shifting diagonal of input Hessian by    9.8949865452683094E-003
 Lowest  eigenvalues of input Hessian
    0.000000    0.000000    0.000000    0.000000    0.000000    0.000000
    0.010000    0.010075    0.010109    0.010183    0.010320    0.010392
    0.010542    0.010642    0.010812    0.011104    0.011227    0.011249
 Highest eigenvalues
    1.943922    1.960249    1.992765    2.029760    2.069079    2.074429


........................................................................
.............................. CYCLE    1 ..............................
........................................................................

 iter      E             dE          RMSdq      gap      omega  full diag
   1   -122.8149948 -0.122815E+03  0.112E-04    1.72       0.0  T
   2   -122.8149948 -0.794387E-10  0.702E-05    1.72     155.3  T
   3   -122.8149948 -0.151914E-10  0.492E-05    1.72     221.6  T
     SCC iter.                  ...        0 min,  0.272 sec
     gradient                   ...        0 min,  0.113 sec
 * total energy  :  -120.8876692 Eh     change       -0.2389925E-08 Eh
   gradient norm :     0.1342135 Eh/α   predicted     0.0000000E+00 (-100.00%)
   displ. norm   :     0.4005488 α      lambda       -0.2775679E-01
   maximum displ.:     0.1147628 α      in ANC's #55, #83, #29, ...

........................................................................
.............................. CYCLE    2 ..............................
........................................................................

 iter      E             dE          RMSdq      gap      omega  full diag
   1   -122.8947101 -0.122895E+03  0.255E-01    1.84       0.0  T
   2   -122.8948397 -0.129617E-03  0.134E-01    1.91       1.0  T
   3   -122.8947604  0.792744E-04  0.448E-02    1.94       1.0  T
   4   -122.8948579 -0.975417E-04  0.214E-02    1.95       1.0  T
   5   -122.8948738 -0.158404E-04  0.104E-02    1.94       1.0  T
   6   -122.8948795 -0.568146E-05  0.456E-03    1.94       2.4  T
   7   -122.8948801 -0.609076E-06  0.297E-03    1.94       3.7  T
   8   -122.8948803 -0.175594E-06  0.167E-03    1.94       6.5  T
   9   -122.8948803 -0.345699E-07  0.846E-04    1.94      12.9  T
  10   -122.8948803 -0.681432E-08  0.374E-04    1.94      29.2  T
     SCC iter.                  ...        0 min,  1.487 sec
     gradient                   ...        0 min,  0.114 sec
 * total energy  :  -120.9073214 Eh     change       -0.1965222E-01 Eh
   gradient norm :     0.0575873 Eh/α   predicted    -0.1613286E-01 ( -17.91%)
   displ. norm   :     0.4178077 α      lambda       -0.1027542E-01
   maximum displ.:     0.1573021 α      in ANC's #18, #19, #55, ...

........................................................................
.............................. CYCLE    3 ..............................
........................................................................

 iter      E             dE          RMSdq      gap      omega  full diag
   1   -122.9413535 -0.122941E+03  0.187E-01    2.09       0.0  T
   2   -122.9414027 -0.491182E-04  0.993E-02    2.12       1.0  T
   3   -122.9413665  0.361557E-04  0.302E-02    2.14       1.0  T
   4   -122.9414128 -0.463022E-04  0.121E-02    2.15       1.0  T
   5   -122.9414172 -0.435397E-05  0.607E-03    2.14       1.8  T
   6   -122.9414189 -0.176059E-05  0.264E-03    2.14       4.1  T
   7   -122.9414191 -0.181084E-06  0.161E-03    2.14       6.8  T
   8   -122.9414192 -0.661422E-07  0.795E-04    2.14      13.7  T
   9   -122.9414192 -0.882594E-08  0.477E-04    2.14      22.9  T
     SCC iter.                  ...        0 min,  1.224 sec
     gradient                   ...        0 min,  0.146 sec
 * total energy  :  -120.9136880 Eh     change       -0.6366672E-02 Eh
   gradient norm :     0.0138446 Eh/α   predicted    -0.6034564E-02 (  -5.22%)
   displ. norm   :     0.3854469 α      lambda       -0.2470864E-02
   maximum displ.:     0.2070695 α      in ANC's #18, #19, #12, ...

........................................................................
.............................. CYCLE    4 ..............................
........................................................................

 iter      E             dE          RMSdq      gap      omega  full diag
   1   -122.9466706 -0.122947E+03  0.107E-01    2.18       0.0  T
   2   -122.9466890 -0.183517E-04  0.544E-02    2.20       1.0  T
   3   -122.9466834  0.558631E-05  0.161E-02    2.20       1.0  T
   4   -122.9466900 -0.657773E-05  0.803E-03    2.20       1.4  T
   5   -122.9466923 -0.232520E-05  0.348E-03    2.20       3.1  T
   6   -122.9466930 -0.708577E-06  0.157E-03    2.20       7.0  T
   7   -122.9466931 -0.131364E-06  0.574E-04    2.20      19.0  T
   8   -122.9466932 -0.128005E-07  0.279E-04    2.20      39.1  T
     SCC iter.                  ...        0 min,  1.486 sec
     gradient                   ...        0 min,  0.116 sec
 * total energy  :  -120.9155242 Eh     change       -0.1836182E-02 Eh
   gradient norm :     0.0121394 Eh/α   predicted    -0.1419013E-02 ( -22.72%)
   displ. norm   :     0.4806726 α      lambda       -0.1869310E-02
   maximum displ.:     0.2831370 α      in ANC's #18, #19, #12, ...

........................................................................
.............................. CYCLE    5 ..............................
........................................................................

 iter      E             dE          RMSdq      gap      omega  full diag
   1   -122.9486970 -0.122949E+03  0.818E-02    2.22       0.0  T
   2   -122.9487111 -0.140677E-04  0.478E-02    2.22       1.0  T
   3   -122.9487052  0.592144E-05  0.170E-02    2.22       1.0  T
   4   -122.9487141 -0.895745E-05  0.496E-03    2.22       2.2  T
   5   -122.9487142 -0.128907E-06  0.297E-03    2.22       3.7  T
   6   -122.9487146 -0.366656E-06  0.113E-03    2.22       9.7  T
   7   -122.9487146 -0.882402E-08  0.663E-04    2.22      16.5  T
   8   -122.9487146 -0.114676E-07  0.317E-04    2.22      34.4  T
     SCC iter.                  ...        0 min,  0.879 sec
     gradient                   ...        0 min,  0.114 sec
 * total energy  :  -120.9168149 Eh     change       -0.1290636E-02 Eh
   gradient norm :     0.0094608 Eh/α   predicted    -0.1150608E-02 ( -10.85%)
   displ. norm   :     0.4065965 α      lambda       -0.9484018E-03
   maximum displ.:     0.2374227 α      in ANC's #18, #19, #12, ...

........................................................................
.............................. CYCLE    6 ..............................
........................................................................

 iter      E             dE          RMSdq      gap      omega  full diag
   1   -122.9484533 -0.122948E+03  0.970E-02    2.21       0.0  T
   2   -122.9484664 -0.130461E-04  0.457E-02    2.21       1.0  T
   3   -122.9484667 -0.344630E-06  0.119E-02    2.22       1.0  T
   4   -122.9484668 -0.618192E-07  0.685E-03    2.22       1.6  T
   5   -122.9484681 -0.137686E-05  0.222E-03    2.22       4.9  T
   6   -122.9484683 -0.195507E-06  0.116E-03    2.22       9.4  T
   7   -122.9484684 -0.104409E-06  0.413E-04    2.22      26.4  T
   8   -122.9484684 -0.306676E-08  0.227E-04    2.22      48.0  T
     SCC iter.                  ...        0 min,  0.956 sec
     gradient                   ...        0 min,  0.127 sec
 * total energy  :  -120.9174080 Eh     change       -0.5930925E-03 Eh
   gradient norm :     0.0064255 Eh/α   predicted    -0.5525994E-03 (  -6.83%)
   displ. norm   :     0.2948863 α      lambda       -0.4729016E-03
   maximum displ.:     0.1518543 α      in ANC's #18, #19, #4, ...

........................................................................
.............................. CYCLE    7 ..............................
........................................................................

 iter      E             dE          RMSdq      gap      omega  full diag
   1   -122.9509215 -0.122951E+03  0.601E-02    2.22       0.0  T
   2   -122.9509267 -0.519324E-05  0.337E-02    2.22       1.0  T
   3   -122.9509252  0.146281E-05  0.833E-03    2.22       1.3  T
   4   -122.9509271 -0.182939E-05  0.343E-03    2.22       3.2  T
   5   -122.9509275 -0.398065E-06  0.183E-03    2.22       6.0  T
   6   -122.9509275 -0.698310E-07  0.111E-03    2.22       9.8  T
   7   -122.9509276 -0.454440E-07  0.563E-04    2.22      19.4  T
   8   -122.9509276 -0.532604E-08  0.324E-04    2.22      33.7  T
     SCC iter.                  ...        0 min,  1.059 sec
     gradient                   ...        0 min,  0.113 sec
 * total energy  :  -120.9176961 Eh     change       -0.2881388E-03 Eh
   gradient norm :     0.0060848 Eh/α   predicted    -0.2570267E-03 ( -10.80%)
   displ. norm   :     0.1922412 α      lambda       -0.2274646E-03
   maximum displ.:     0.0838626 α      in ANC's #4, #18, #2, ...

........................................................................
.............................. CYCLE    8 ..............................
........................................................................

 iter      E             dE          RMSdq      gap      omega  full diag
   1   -122.9530546 -0.122953E+03  0.419E-02    2.22       0.0  T
   2   -122.9530558 -0.126984E-05  0.230E-02    2.22       1.0  T
   3   -122.9530546  0.124692E-05  0.606E-03    2.22       1.8  T
   4   -122.9530561 -0.151180E-05  0.235E-03    2.22       4.6  T
   5   -122.9530563 -0.172675E-06  0.831E-04    2.22      13.1  T
   6   -122.9530563 -0.232102E-07  0.362E-04    2.22      30.1  T
     SCC iter.                  ...        0 min,  0.738 sec
     gradient                   ...        0 min,  0.113 sec
 * total energy  :  -120.9178566 Eh     change       -0.1605352E-03 Eh
   gradient norm :     0.0045116 Eh/α   predicted    -0.1179367E-03 ( -26.54%)
   displ. norm   :     0.2000545 α      lambda       -0.1723846E-03
   maximum displ.:     0.1084249 α      in ANC's #4, #2, #6, ...

........................................................................
.............................. CYCLE    9 ..............................
........................................................................

 iter      E             dE          RMSdq      gap      omega  full diag
   1   -122.9535903 -0.122954E+03  0.426E-02    2.22       0.0  T
   2   -122.9535922 -0.191642E-05  0.234E-02    2.22       1.0  T
   3   -122.9535909  0.130772E-05  0.660E-03    2.22       1.7  T
   4   -122.9535924 -0.149885E-05  0.287E-03    2.22       3.8  T
   5   -122.9535926 -0.226204E-06  0.126E-03    2.22       8.7  T
   6   -122.9535927 -0.115175E-06  0.464E-04    2.22      23.5  T
   7   -122.9535927 -0.123148E-07  0.228E-04    2.22      47.9  T
     SCC iter.                  ...        0 min,  0.616 sec
     gradient                   ...        0 min,  0.113 sec
 * total energy  :  -120.9179776 Eh     change       -0.1210129E-03 Eh
   gradient norm :     0.0028042 Eh/α   predicted    -0.8964320E-04 ( -25.92%)
   displ. norm   :     0.1885541 α      lambda       -0.1156908E-03
   maximum displ.:     0.1103845 α      in ANC's #4, #6, #2, ...

........................................................................
.............................. CYCLE   10 ..............................
........................................................................

 iter      E             dE          RMSdq      gap      omega  full diag
   1   -122.9537241 -0.122954E+03  0.320E-02    2.23       0.0  T
   2   -122.9537247 -0.633007E-06  0.182E-02    2.22       1.0  T
   3   -122.9537241  0.658764E-06  0.421E-03    2.22       2.6  T
   4   -122.9537248 -0.765125E-06  0.163E-03    2.22       6.7  T
   5   -122.9537249 -0.892285E-07  0.664E-04    2.22      16.4  T
   6   -122.9537249 -0.196422E-07  0.315E-04    2.22      34.6  T
     SCC iter.                  ...        0 min,  0.583 sec
     gradient                   ...        0 min,  0.112 sec
 * total energy  :  -120.9180677 Eh     change       -0.9006684E-04 Eh
   gradient norm :     0.0028095 Eh/α   predicted    -0.5990593E-04 ( -33.49%)
   displ. norm   :     0.2225683 α      lambda       -0.1200456E-03
   maximum displ.:     0.1318141 α      in ANC's #4, #6, #2, ...

........................................................................
.............................. CYCLE   11 ..............................
........................................................................

 iter      E             dE          RMSdq      gap      omega  full diag
   1   -122.9530843 -0.122953E+03  0.353E-02    2.22       0.0  T
   2   -122.9530849 -0.589723E-06  0.199E-02    2.23       1.0  T
   3   -122.9530842  0.678219E-06  0.400E-03    2.23       2.7  T
   4   -122.9530848 -0.573543E-06  0.208E-03    2.23       5.2  T
   5   -122.9530851 -0.269210E-06  0.690E-04    2.23      15.8  T
   6   -122.9530851 -0.401953E-07  0.241E-04    2.23      45.3  T
     SCC iter.                  ...        0 min,  0.547 sec
     gradient                   ...        0 min,  0.113 sec
 * total energy  :  -120.9181688 Eh     change       -0.1010476E-03 Eh
   gradient norm :     0.0037282 Eh/α   predicted    -0.6300125E-04 ( -37.65%)
   displ. norm   :     0.3018950 α      lambda       -0.1541725E-03
   maximum displ.:     0.1765658 α      in ANC's #4, #6, #2, ...

........................................................................
.............................. CYCLE   12 ..............................
........................................................................

 iter      E             dE          RMSdq      gap      omega  full diag
   1   -122.9523811 -0.122952E+03  0.477E-02    2.23       0.0  T
   2   -122.9523820 -0.926759E-06  0.268E-02    2.23       1.0  T
   3   -122.9523812  0.851413E-06  0.497E-03    2.23       2.2  T
   4   -122.9523815 -0.395861E-06  0.309E-03    2.23       3.5  T
   5   -122.9523823 -0.713541E-06  0.769E-04    2.23      14.2  T
   6   -122.9523823 -0.517451E-07  0.298E-04    2.23      36.6  T
     SCC iter.                  ...        0 min,  0.574 sec
     gradient                   ...        0 min,  0.113 sec
 * total energy  :  -120.9183008 Eh     change       -0.1320663E-03 Eh
   gradient norm :     0.0043545 Eh/α   predicted    -0.8411477E-04 ( -36.31%)
   displ. norm   :     0.4037075 α      lambda       -0.1911287E-03
   maximum displ.:     0.2353109 α      in ANC's #4, #6, #2, ...

........................................................................
.............................. CYCLE   13 ..............................
........................................................................

 iter      E             dE          RMSdq      gap      omega  full diag
   1   -122.9514597 -0.122951E+03  0.633E-02    2.24       0.0  T
   2   -122.9514613 -0.157378E-05  0.357E-02    2.24       1.0  T
   3   -122.9514589  0.238042E-05  0.704E-03    2.24       1.6  T
   4   -122.9514608 -0.187752E-05  0.390E-03    2.25       2.8  T
   5   -122.9514618 -0.996640E-06  0.118E-03    2.24       9.2  T
   6   -122.9514619 -0.121587E-06  0.454E-04    2.24      24.0  T
   7   -122.9514619 -0.691325E-08  0.265E-04    2.24      41.2  T
     SCC iter.                  ...        0 min,  0.690 sec
     gradient                   ...        0 min,  0.117 sec
 * total energy  :  -120.9184642 Eh     change       -0.1633900E-03 Eh
   gradient norm :     0.0041833 Eh/α   predicted    -0.1111400E-03 ( -31.98%)
   displ. norm   :     0.4771356 α      lambda       -0.2091699E-03
   maximum displ.:     0.2792753 α      in ANC's #4, #6, #2, ...

........................................................................
.............................. CYCLE   14 ..............................
........................................................................

 iter      E             dE          RMSdq      gap      omega  full diag
   1   -122.9509421 -0.122951E+03  0.739E-02    2.26       0.0  T
   2   -122.9509441 -0.197671E-05  0.419E-02    2.26       1.0  T
   3   -122.9509399  0.421788E-05  0.857E-03    2.26       1.3  T
   4   -122.9509437 -0.385957E-05  0.429E-03    2.26       2.5  T
   5   -122.9509448 -0.108245E-05  0.140E-03    2.26       7.8  T
   6   -122.9509450 -0.174987E-06  0.516E-04    2.26      21.1  T
   7   -122.9509450 -0.787526E-08  0.305E-04    2.26      35.8  T
     SCC iter.                  ...        0 min,  0.719 sec
     gradient                   ...        0 min,  0.114 sec
 * total energy  :  -120.9186420 Eh     change       -0.1778181E-03 Eh
   gradient norm :     0.0036435 Eh/α   predicted    -0.1283960E-03 ( -27.79%)
   displ. norm   :     0.5166954 α      lambda       -0.2123410E-03
   maximum displ.:     0.3051820 α      in ANC's #4, #6, #2, ...

........................................................................
.............................. CYCLE   15 ..............................
........................................................................

 iter      E             dE          RMSdq      gap      omega  full diag
   1   -122.9512868 -0.122951E+03  0.781E-02    2.27       0.0  T
   2   -122.9512889 -0.206632E-05  0.445E-02    2.28       1.0  T
   3   -122.9512830  0.589931E-05  0.945E-03    2.28       1.2  T
   4   -122.9512889 -0.590313E-05  0.413E-03    2.28       2.6  T
   5   -122.9512897 -0.873203E-06  0.152E-03    2.28       7.2  T
   6   -122.9512899 -0.206624E-06  0.526E-04    2.28      20.7  T
   7   -122.9512899 -0.679981E-08  0.314E-04    2.28      34.8  T
     SCC iter.                  ...        0 min,  0.643 sec
     gradient                   ...        0 min,  0.114 sec
 * total energy  :  -120.9188204 Eh     change       -0.1783487E-03 Eh
   gradient norm :     0.0033381 Eh/α   predicted    -0.1345170E-03 ( -24.58%)
   displ. norm   :     0.5386410 α      lambda       -0.2008413E-03
   maximum displ.:     0.3205070 α      in ANC's #4, #2, #6, ...

........................................................................
.............................. CYCLE   16 ..............................
........................................................................

 iter      E             dE          RMSdq      gap      omega  full diag
   1   -122.9524062 -0.122952E+03  0.792E-02    2.29       0.0  T
   2   -122.9524082 -0.199320E-05  0.452E-02    2.30       1.0  T
   3   -122.9524017  0.655620E-05  0.968E-03    2.30       1.1  T
   4   -122.9524085 -0.679633E-05  0.387E-03    2.30       2.8  T
   5   -122.9524091 -0.677611E-06  0.155E-03    2.30       7.1  T
   6   -122.9524093 -0.218550E-06  0.480E-04    2.30      22.7  T
   7   -122.9524094 -0.467368E-08  0.283E-04    2.30      38.5  T
     SCC iter.                  ...        0 min,  0.664 sec
     gradient                   ...        0 min,  0.113 sec
 * total energy  :  -120.9189854 Eh     change       -0.1650363E-03 Eh
   gradient norm :     0.0032847 Eh/α   predicted    -0.1295578E-03 ( -21.50%)
   displ. norm   :     0.5400416 α      lambda       -0.1657377E-03
   maximum displ.:     0.3218342 α      in ANC's #4, #2, #6, ...

........................................................................
.............................. CYCLE   17 ..............................
........................................................................

 iter      E             dE          RMSdq      gap      omega  full diag
   1   -122.9532734 -0.122953E+03  0.773E-02    2.31       0.0  T
   2   -122.9532753 -0.191520E-05  0.440E-02    2.31       1.0  T
   3   -122.9532692  0.613805E-05  0.946E-03    2.31       1.2  T
   4   -122.9532756 -0.641400E-05  0.372E-03    2.32       2.9  T
   5   -122.9532762 -0.588169E-06  0.155E-03    2.31       7.0  T
   6   -122.9532764 -0.222677E-06  0.442E-04    2.31      24.7  T
   7   -122.9532764 -0.382188E-08  0.256E-04    2.31      42.7  T
     SCC iter.                  ...        0 min,  1.041 sec
     gradient                   ...        0 min,  0.164 sec
 * total energy  :  -120.9191188 Eh     change       -0.1334028E-03 Eh
   gradient norm :     0.0029968 Eh/α   predicted    -0.1070397E-03 ( -19.76%)
   displ. norm   :     0.5029270 α      lambda       -0.1219857E-03
   maximum displ.:     0.2987085 α      in ANC's #4, #2, #6, ...

........................................................................
.............................. CYCLE   18 ..............................
........................................................................

 iter      E             dE          RMSdq      gap      omega  full diag
   1   -122.9538894 -0.122954E+03  0.700E-02    2.33       0.0  T
   2   -122.9538910 -0.160168E-05  0.398E-02    2.33       1.0  T
   3   -122.9538863  0.470176E-05  0.847E-03    2.33       1.3  T
   4   -122.9538912 -0.494175E-05  0.333E-03    2.33       3.3  T
   5   -122.9538916 -0.442495E-06  0.144E-03    2.33       7.6  T
   6   -122.9538918 -0.193308E-06  0.387E-04    2.33      28.2  T
   7   -122.9538918 -0.331140E-08  0.220E-04    2.33      49.6  T
     SCC iter.                  ...        0 min,  1.067 sec
     gradient                   ...        0 min,  0.169 sec
 * total energy  :  -120.9192152 Eh     change       -0.9635504E-04 Eh
   gradient norm :     0.0023323 Eh/α   predicted    -0.7642386E-04 ( -20.69%)
   displ. norm   :     0.4273731 α      lambda       -0.8266654E-04
   maximum displ.:     0.2503921 α      in ANC's #4, #2, #6, ...

........................................................................
.............................. CYCLE   19 ..............................
........................................................................

 iter      E             dE          RMSdq      gap      omega  full diag
   1   -122.9544104 -0.122954E+03  0.579E-02    2.34       0.0  T
   2   -122.9544115 -0.113370E-05  0.330E-02    2.34       1.0  T
   3   -122.9544084  0.313933E-05  0.704E-03    2.34       1.6  T
   4   -122.9544117 -0.334691E-05  0.267E-03    2.34       4.1  T
   5   -122.9544120 -0.254717E-06  0.124E-03    2.34       8.8  T
   6   -122.9544121 -0.142120E-06  0.320E-04    2.34      34.1  T
   7   -122.9544121 -0.296833E-08  0.179E-04    2.34      61.1  T
     SCC iter.                  ...        0 min,  0.552 sec
     gradient                   ...        0 min,  0.113 sec
 * total energy  :  -120.9192801 Eh     change       -0.6496206E-04 Eh
   gradient norm :     0.0017390 Eh/α   predicted    -0.4888342E-04 ( -24.75%)
   displ. norm   :     0.5085418 α      lambda       -0.5594943E-04
   maximum displ.:     0.2875545 α      in ANC's #4, #2, #6, ...

........................................................................
.............................. CYCLE   20 ..............................
........................................................................

 iter      E             dE          RMSdq      gap      omega  full diag
   1   -122.9548841 -0.122955E+03  0.674E-02    2.34       0.0  T
   2   -122.9548856 -0.151128E-05  0.386E-02    2.35       1.0  T
   3   -122.9548813  0.431353E-05  0.817E-03    2.35       1.3  T
   4   -122.9548860 -0.469183E-05  0.286E-03    2.35       3.8  T
   5   -122.9548862 -0.248652E-06  0.144E-03    2.35       7.6  T
   6   -122.9548864 -0.191248E-06  0.367E-04    2.35      29.8  T
   7   -122.9548864 -0.544387E-08  0.191E-04    2.35      57.3  T
     SCC iter.                  ...        0 min,  0.594 sec
     gradient                   ...        0 min,  0.114 sec
 * total energy  :  -120.9193370 Eh     change       -0.5691775E-04 Eh
   gradient norm :     0.0016975 Eh/α   predicted    -0.3119157E-04 ( -45.20%)
   displ. norm   :     0.2226720 α      lambda       -0.2255021E-04
   maximum displ.:     0.1213191 α      in ANC's #2, #4, #6, ...
 * RMSD in coord.:     0.6331499 α      energy gain  -0.3166790E-01 Eh

generating ANC from exact Hessian ...
Using Lindh-Hessian (1995)
 Shifting diagonal of input Hessian by    9.9113776227193126E-003
 Lowest  eigenvalues of input Hessian
    0.000000    0.000000    0.000000    0.000000    0.000000    0.000000
    0.010000    0.010080    0.010137    0.010270    0.010370    0.010413
    0.010544    0.010553    0.010794    0.010985    0.011025    0.011174
 Highest eigenvalues
    2.016119    2.023468    2.026369    2.074373    2.115361    2.125552


........................................................................
.............................. CYCLE   21 ..............................
........................................................................

 iter      E             dE          RMSdq      gap      omega  full diag
   1   -122.9554335 -0.122955E+03  0.285E-02    2.35       0.0  T
   2   -122.9554338 -0.261458E-06  0.165E-02    2.35       1.0  T
   3   -122.9554329  0.901047E-06  0.351E-03    2.35       3.1  T
   4   -122.9554339 -0.987163E-06  0.109E-03    2.35      10.0  T
   5   -122.9554339 -0.386215E-07  0.588E-04    2.35      18.6  T
   6   -122.9554339 -0.268242E-07  0.183E-04    2.35      59.8  T
     SCC iter.                  ...        0 min,  0.738 sec
     gradient                   ...        0 min,  0.115 sec
 * total energy  :  -120.9193631 Eh     change       -0.2605139E-04 Eh
   gradient norm :     0.0012201 Eh/α   predicted     0.0000000E+00 (-100.00%)
   displ. norm   :     0.0356166 α      lambda       -0.7964912E-05
   maximum displ.:     0.0190395 α      in ANC's #1, #2, #15, ...

........................................................................
.............................. CYCLE   22 ..............................
........................................................................

 iter      E             dE          RMSdq      gap      omega  full diag
   1   -122.9552619 -0.122955E+03  0.692E-03    2.35       0.0  T
   2   -122.9552620 -0.488516E-07  0.379E-03    2.35       2.9  T
   3   -122.9552620  0.130732E-07  0.843E-04    2.35      12.9  T
   4   -122.9552620 -0.108513E-07  0.470E-04    2.35      23.2  T
     SCC iter.                  ...        0 min,  0.388 sec
     gradient                   ...        0 min,  0.115 sec
 * total energy  :  -120.9193737 Eh     change       -0.1056393E-04 Eh
   gradient norm :     0.0005001 Eh/α   predicted    -0.4209385E-05 ( -60.15%)
   displ. norm   :     0.1263725 α      lambda       -0.2175281E-04
   maximum displ.:     0.0631882 α      in ANC's #1, #2, #15, ...

........................................................................
.............................. CYCLE   23 ..............................
........................................................................

 iter      E             dE          RMSdq      gap      omega  full diag
   1   -122.9551144 -0.122955E+03  0.199E-02    2.35       0.0  T
   2   -122.9551147 -0.290811E-06  0.113E-02    2.35       1.0  T
   3   -122.9551145  0.209452E-06  0.249E-03    2.35       4.4  T
   4   -122.9551147 -0.160268E-06  0.138E-03    2.35       7.9  T
   5   -122.9551148 -0.101638E-06  0.537E-04    2.35      20.3  T
   6   -122.9551148 -0.227109E-07  0.188E-04    2.35      58.1  T
     SCC iter.                  ...        0 min,  0.663 sec
     gradient                   ...        0 min,  0.125 sec
 * total energy  :  -120.9193949 Eh     change       -0.2120883E-04 Eh
   gradient norm :     0.0014861 Eh/α   predicted    -0.1095442E-04 ( -48.35%)
   displ. norm   :     0.1359070 α      lambda       -0.1635623E-04
   maximum displ.:     0.0683829 α      in ANC's #1, #2, #4, ...

........................................................................
.............................. CYCLE   24 ..............................
........................................................................

 iter      E             dE          RMSdq      gap      omega  full diag
   1   -122.9553193 -0.122955E+03  0.251E-02    2.35       0.0  T
   2   -122.9553201 -0.740747E-06  0.132E-02    2.35       1.0  T
   3   -122.9553199  0.143848E-06  0.347E-03    2.35       3.1  T
   4   -122.9553201 -0.151921E-06  0.164E-03    2.35       6.6  T
   5   -122.9553202 -0.105440E-06  0.685E-04    2.35      15.9  T
   6   -122.9553202 -0.303387E-07  0.283E-04    2.35      38.5  T
     SCC iter.                  ...        0 min,  0.638 sec
     gradient                   ...        0 min,  0.113 sec
 * total energy  :  -120.9194085 Eh     change       -0.1366805E-04 Eh
   gradient norm :     0.0019047 Eh/α   predicted    -0.8249465E-05 ( -39.64%)
   displ. norm   :     0.1405216 α      lambda       -0.1607364E-04
   maximum displ.:     0.0701102 α      in ANC's #1, #2, #4, ...

........................................................................
.............................. CYCLE   25 ..............................
........................................................................

 iter      E             dE          RMSdq      gap      omega  full diag
   1   -122.9553053 -0.122955E+03  0.248E-02    2.35       0.0  T
   2   -122.9553059 -0.605925E-06  0.130E-02    2.35       1.0  T
   3   -122.9553058  0.558894E-07  0.329E-03    2.35       3.3  T
   4   -122.9553059 -0.447854E-07  0.163E-03    2.35       6.7  T
   5   -122.9553060 -0.115240E-06  0.391E-04    2.35      27.9  T
   6   -122.9553060 -0.448952E-08  0.181E-04    2.35      60.2  T
     SCC iter.                  ...        0 min,  0.546 sec
     gradient                   ...        0 min,  0.113 sec
 * total energy  :  -120.9194238 Eh     change       -0.1526490E-04 Eh
   gradient norm :     0.0015412 Eh/α   predicted    -0.8108268E-05 ( -46.88%)
   displ. norm   :     0.2219232 α      lambda       -0.2509050E-04
   maximum displ.:     0.1106332 α      in ANC's #1, #2, #9, ...

........................................................................
.............................. CYCLE   26 ..............................
........................................................................

 iter      E             dE          RMSdq      gap      omega  full diag
   1   -122.9551865 -0.122955E+03  0.366E-02    2.35       0.0  T
   2   -122.9551877 -0.120357E-05  0.202E-02    2.35       1.0  T
   3   -122.9551870  0.698659E-06  0.544E-03    2.35       2.0  T
   4   -122.9551878 -0.831354E-06  0.234E-03    2.35       4.7  T
   5   -122.9551879 -0.148139E-06  0.830E-04    2.35      13.1  T
   6   -122.9551880 -0.375673E-07  0.303E-04    2.35      36.0  T
     SCC iter.                  ...        0 min,  0.779 sec
     gradient                   ...        0 min,  0.144 sec
 * total energy  :  -120.9194427 Eh     change       -0.1884642E-04 Eh
   gradient norm :     0.0011312 Eh/α   predicted    -0.1282179E-04 ( -31.97%)
   displ. norm   :     0.1380515 α      lambda       -0.1757683E-04
   maximum displ.:     0.0680607 α      in ANC's #1, #2, #4, ...

........................................................................
.............................. CYCLE   27 ..............................
........................................................................

 iter      E             dE          RMSdq      gap      omega  full diag
   1   -122.9554180 -0.122955E+03  0.213E-02    2.35       0.0  T
   2   -122.9554184 -0.408861E-06  0.119E-02    2.35       1.0  T
   3   -122.9554179  0.452903E-06  0.332E-03    2.35       3.3  T
   4   -122.9554184 -0.483181E-06  0.145E-03    2.35       7.5  T
   5   -122.9554185 -0.797503E-07  0.637E-04    2.35      17.1  T
   6   -122.9554185 -0.268420E-07  0.282E-04    2.35      38.7  T
     SCC iter.                  ...        0 min,  0.664 sec
     gradient                   ...        0 min,  0.113 sec
 * total energy  :  -120.9194585 Eh     change       -0.1589062E-04 Eh
   gradient norm :     0.0011528 Eh/α   predicted    -0.8863434E-05 ( -44.22%)
   displ. norm   :     0.0999748 α      lambda       -0.1071657E-04
   maximum displ.:     0.0478419 α      in ANC's #1, #6, #2, ...

........................................................................
.............................. CYCLE   28 ..............................
........................................................................

 iter      E             dE          RMSdq      gap      omega  full diag
   1   -122.9557434 -0.122956E+03  0.134E-02    2.34       0.0  T
   2   -122.9557435 -0.917311E-07  0.761E-03    2.34       1.4  T
   3   -122.9557433  0.118150E-06  0.160E-03    2.34       6.8  T
   4   -122.9557435 -0.124021E-06  0.734E-04    2.34      14.9  T
   5   -122.9557435 -0.234965E-07  0.259E-04    2.34      42.1  T
     SCC iter.                  ...        0 min,  0.667 sec
     gradient                   ...        0 min,  0.118 sec
 * total energy  :  -120.9194706 Eh     change       -0.1207596E-04 Eh
   gradient norm :     0.0011921 Eh/α   predicted    -0.5384272E-05 ( -55.41%)
   displ. norm   :     0.1661450 α      lambda       -0.1428937E-04
   maximum displ.:     0.0827520 α      in ANC's #1, #6, #2, ...

........................................................................
.............................. CYCLE   29 ..............................
........................................................................

 iter      E             dE          RMSdq      gap      omega  full diag
   1   -122.9556647 -0.122956E+03  0.211E-02    2.34       0.0  T
   2   -122.9556649 -0.215757E-06  0.121E-02    2.34       1.0  T
   3   -122.9556647  0.277382E-06  0.231E-03    2.34       4.7  T
   4   -122.9556650 -0.310772E-06  0.985E-04    2.34      11.1  T
   5   -122.9556650 -0.465573E-07  0.254E-04    2.34      43.0  T
     SCC iter.                  ...        0 min,  0.903 sec
     gradient                   ...        0 min,  0.146 sec
 * total energy  :  -120.9194867 Eh     change       -0.1604201E-04 Eh
   gradient norm :     0.0008620 Eh/α   predicted    -0.7233068E-05 ( -54.91%)
   displ. norm   :     0.1890281 α      lambda       -0.1359346E-04
   maximum displ.:     0.0985034 α      in ANC's #1, #6, #2, ...

........................................................................
.............................. CYCLE   30 ..............................
........................................................................

 iter      E             dE          RMSdq      gap      omega  full diag
   1   -122.9555421 -0.122956E+03  0.237E-02    2.34       0.0  T
   2   -122.9555423 -0.208625E-06  0.137E-02    2.34       1.0  T
   3   -122.9555420  0.246902E-06  0.205E-03    2.34       5.3  T
   4   -122.9555423 -0.294370E-06  0.829E-04    2.34      13.2  T
   5   -122.9555424 -0.294544E-07  0.254E-04    2.34      42.9  T
     SCC iter.                  ...        0 min,  0.572 sec
     gradient                   ...        0 min,  0.117 sec
 * total energy  :  -120.9195024 Eh     change       -0.1573352E-04 Eh
   gradient norm :     0.0008340 Eh/α   predicted    -0.6908741E-05 ( -56.09%)
   displ. norm   :     0.1891282 α      lambda       -0.1331994E-04
   maximum displ.:     0.1015189 α      in ANC's #1, #6, #5, ...

........................................................................
.............................. CYCLE   31 ..............................
........................................................................

 iter      E             dE          RMSdq      gap      omega  full diag
   1   -122.9554376 -0.122955E+03  0.236E-02    2.34       0.0  T
   2   -122.9554378 -0.194524E-06  0.136E-02    2.34       1.0  T
   3   -122.9554376  0.209864E-06  0.196E-03    2.34       5.6  T
   4   -122.9554379 -0.244656E-06  0.829E-04    2.34      13.2  T
   5   -122.9554379 -0.303822E-07  0.321E-04    2.34      34.0  T
     SCC iter.                  ...        0 min,  0.652 sec
     gradient                   ...        0 min,  0.125 sec
 * total energy  :  -120.9195189 Eh     change       -0.1647044E-04 Eh
   gradient norm :     0.0010680 Eh/α   predicted    -0.6767896E-05 ( -58.91%)
   displ. norm   :     0.2249170 α      lambda       -0.1609535E-04
   maximum displ.:     0.1219411 α      in ANC's #1, #6, #5, ...

........................................................................
.............................. CYCLE   32 ..............................
........................................................................

 iter      E             dE          RMSdq      gap      omega  full diag
   1   -122.9552188 -0.122955E+03  0.281E-02    2.35       0.0  T
   2   -122.9552191 -0.258174E-06  0.162E-02    2.35       1.0  T
   3   -122.9552188  0.299818E-06  0.245E-03    2.35       4.4  T
   4   -122.9552191 -0.337748E-06  0.106E-03    2.35      10.3  T
   5   -122.9552192 -0.518497E-07  0.380E-04    2.35      28.7  T
   6   -122.9552192 -0.114223E-07  0.158E-04    2.35      69.0  T
     SCC iter.                  ...        0 min,  0.737 sec
     gradient                   ...        0 min,  0.168 sec
 * total energy  :  -120.9195387 Eh     change       -0.1980041E-04 Eh
   gradient norm :     0.0011283 Eh/α   predicted    -0.8232300E-05 ( -58.42%)
   displ. norm   :     0.2654492 α      lambda       -0.1724954E-04
   maximum displ.:     0.1442645 α      in ANC's #1, #6, #5, ...

........................................................................
.............................. CYCLE   33 ..............................
........................................................................

 iter      E             dE          RMSdq      gap      omega  full diag
   1   -122.9549779 -0.122955E+03  0.332E-02    2.35       0.0  T
   2   -122.9549783 -0.376708E-06  0.191E-02    2.35       1.0  T
   3   -122.9549778  0.492994E-06  0.312E-03    2.35       3.5  T
   4   -122.9549783 -0.525568E-06  0.139E-03    2.35       7.8  T
   5   -122.9549784 -0.879749E-07  0.591E-04    2.35      18.5  T
   6   -122.9549784 -0.325180E-07  0.181E-04    2.35      60.4  T
     SCC iter.                  ...        0 min,  0.952 sec
     gradient                   ...        0 min,  0.181 sec
 * total energy  :  -120.9195593 Eh     change       -0.2059280E-04 Eh
   gradient norm :     0.0009891 Eh/α   predicted    -0.8899868E-05 ( -56.78%)
   displ. norm   :     0.2771954 α      lambda       -0.1550166E-04
   maximum displ.:     0.1513031 α      in ANC's #1, #6, #5, ...

........................................................................
.............................. CYCLE   34 ..............................
........................................................................

 iter      E             dE          RMSdq      gap      omega  full diag
   1   -122.9548784 -0.122955E+03  0.341E-02    2.35       0.0  T
   2   -122.9548787 -0.388552E-06  0.197E-02    2.35       1.0  T
   3   -122.9548782  0.537294E-06  0.321E-03    2.35       3.4  T
   4   -122.9548788 -0.596991E-06  0.133E-03    2.35       8.2  T
   5   -122.9548789 -0.694095E-07  0.591E-04    2.35      18.5  T
   6   -122.9548789 -0.313042E-07  0.207E-04    2.35      52.7  T
     SCC iter.                  ...        0 min,  0.757 sec
     gradient                   ...        0 min,  0.113 sec
 * total energy  :  -120.9195778 Eh     change       -0.1854186E-04 Eh
   gradient norm :     0.0008154 Eh/α   predicted    -0.8017608E-05 ( -56.76%)
   displ. norm   :     0.2709267 α      lambda       -0.1409510E-04
   maximum displ.:     0.1484806 α      in ANC's #1, #6, #5, ...

........................................................................
.............................. CYCLE   35 ..............................
........................................................................

 iter      E             dE          RMSdq      gap      omega  full diag
   1   -122.9550448 -0.122955E+03  0.331E-02    2.35       0.0  T
   2   -122.9550452 -0.360963E-06  0.191E-02    2.35       1.0  T
   3   -122.9550447  0.487074E-06  0.299E-03    2.35       3.7  T
   4   -122.9550452 -0.519348E-06  0.132E-03    2.35       8.3  T
   5   -122.9550453 -0.845056E-07  0.577E-04    2.35      18.9  T
   6   -122.9550453 -0.301300E-07  0.186E-04    2.35      58.6  T
     SCC iter.                  ...        0 min,  0.455 sec
     gradient                   ...        0 min,  0.113 sec
 * total energy  :  -120.9195949 Eh     change       -0.1707279E-04 Eh
   gradient norm :     0.0007911 Eh/α   predicted    -0.7279460E-05 ( -57.36%)
   displ. norm   :     0.2794520 α      lambda       -0.1399159E-04
   maximum displ.:     0.1541043 α      in ANC's #1, #6, #5, ...

........................................................................
.............................. CYCLE   36 ..............................
........................................................................

 iter      E             dE          RMSdq      gap      omega  full diag
   1   -122.9552112 -0.122955E+03  0.338E-02    2.35       0.0  T
   2   -122.9552116 -0.378094E-06  0.195E-02    2.35       1.0  T
   3   -122.9552110  0.575127E-06  0.307E-03    2.35       3.6  T
   4   -122.9552116 -0.611654E-06  0.134E-03    2.35       8.2  T
   5   -122.9552117 -0.932269E-07  0.556E-04    2.35      19.6  T
   6   -122.9552118 -0.278074E-07  0.182E-04    2.35      60.0  T
     SCC iter.                  ...        0 min,  0.718 sec
     gradient                   ...        0 min,  0.117 sec
 * total energy  :  -120.9196118 Eh     change       -0.1689384E-04 Eh
   gradient norm :     0.0008510 Eh/α   predicted    -0.7241454E-05 ( -57.14%)
   displ. norm   :     0.2900559 α      lambda       -0.1419335E-04
   maximum displ.:     0.1621268 α      in ANC's #6, #1, #8, ...

........................................................................
.............................. CYCLE   37 ..............................
........................................................................

 iter      E             dE          RMSdq      gap      omega  full diag
   1   -122.9554588 -0.122955E+03  0.348E-02    2.35       0.0  T
   2   -122.9554592 -0.381416E-06  0.200E-02    2.35       1.0  T
   3   -122.9554586  0.546633E-06  0.302E-03    2.35       3.6  T
   4   -122.9554592 -0.525036E-06  0.152E-03    2.35       7.2  T
   5   -122.9554593 -0.154665E-06  0.550E-04    2.35      19.8  T
   6   -122.9554593 -0.257129E-07  0.188E-04    2.35      57.9  T
     SCC iter.                  ...        0 min,  0.738 sec
     gradient                   ...        0 min,  0.178 sec
 * total energy  :  -120.9196290 Eh     change       -0.1723057E-04 Eh
   gradient norm :     0.0008369 Eh/α   predicted    -0.7365987E-05 ( -57.25%)
   displ. norm   :     0.3042505 α      lambda       -0.1506868E-04
   maximum displ.:     0.1731706 α      in ANC's #6, #1, #8, ...

........................................................................
.............................. CYCLE   38 ..............................
........................................................................

 iter      E             dE          RMSdq      gap      omega  full diag
   1   -122.9556387 -0.122956E+03  0.364E-02    2.35       0.0  T
   2   -122.9556392 -0.447410E-06  0.209E-02    2.35       1.0  T
   3   -122.9556385  0.697314E-06  0.337E-03    2.35       3.2  T
   4   -122.9556391 -0.661412E-06  0.170E-03    2.35       6.4  T
   5   -122.9556393 -0.194022E-06  0.583E-04    2.35      18.7  T
   6   -122.9556394 -0.292485E-07  0.196E-04    2.35      55.6  T
     SCC iter.                  ...        0 min,  0.621 sec
     gradient                   ...        0 min,  0.145 sec
 * total energy  :  -120.9196479 Eh     change       -0.1891527E-04 Eh
   gradient norm :     0.0008587 Eh/α   predicted    -0.7844933E-05 ( -58.53%)
   displ. norm   :     0.3887961 α      lambda       -0.2030560E-04
   maximum displ.:     0.2244521 α      in ANC's #6, #1, #8, ...

........................................................................
.............................. CYCLE   39 ..............................
........................................................................

 iter      E             dE          RMSdq      gap      omega  full diag
   1   -122.9556028 -0.122956E+03  0.463E-02    2.36       0.0  T
   2   -122.9556035 -0.676934E-06  0.266E-02    2.36       1.0  T
   3   -122.9556024  0.106533E-05  0.416E-03    2.36       2.6  T
   4   -122.9556034 -0.104295E-05  0.207E-03    2.36       5.3  T
   5   -122.9556037 -0.273094E-06  0.724E-04    2.36      15.1  T
   6   -122.9556038 -0.425413E-07  0.259E-04    2.36      42.1  T
     SCC iter.                  ...        0 min,  0.757 sec
     gradient                   ...        0 min,  0.116 sec
 * total energy  :  -120.9196730 Eh     change       -0.2508367E-04 Eh
   gradient norm :     0.0009794 Eh/α   predicted    -0.1083787E-04 ( -56.79%)
   displ. norm   :     0.4973299 α      lambda       -0.2593433E-04
   maximum displ.:     0.2899803 α      in ANC's #6, #1, #8, ...

........................................................................
.............................. CYCLE   40 ..............................
........................................................................

 iter      E             dE          RMSdq      gap      omega  full diag
   1   -122.9552506 -0.122955E+03  0.593E-02    2.36       0.0  T
   2   -122.9552517 -0.109274E-05  0.341E-02    2.36       1.0  T
   3   -122.9552497  0.198762E-05  0.547E-03    2.36       2.0  T
   4   -122.9552518 -0.203092E-05  0.256E-03    2.36       4.3  T
   5   -122.9552521 -0.379413E-06  0.975E-04    2.36      11.2  T
   6   -122.9552522 -0.776975E-07  0.336E-04    2.36      32.5  T
     SCC iter.                  ...        0 min,  0.771 sec
     gradient                   ...        0 min,  0.167 sec
 * total energy  :  -120.9197018 Eh     change       -0.2884183E-04 Eh
   gradient norm :     0.0012933 Eh/α   predicted    -0.1439313E-04 ( -50.10%)
   displ. norm   :     0.4029955 α      lambda       -0.2226294E-04
   maximum displ.:     0.2361388 α      in ANC's #6, #1, #8, ...

........................................................................
.............................. CYCLE   41 ..............................
........................................................................

 iter      E             dE          RMSdq      gap      omega  full diag
   1   -122.9560332 -0.122956E+03  0.481E-02    2.36       0.0  T
   2   -122.9560340 -0.731209E-06  0.276E-02    2.36       1.0  T
   3   -122.9560329  0.111553E-05  0.435E-03    2.36       2.5  T
   4   -122.9560340 -0.112268E-05  0.210E-03    2.36       5.2  T
   5   -122.9560342 -0.257486E-06  0.825E-04    2.36      13.2  T
   6   -122.9560343 -0.542245E-07  0.288E-04    2.36      37.9  T
     SCC iter.                  ...        0 min,  0.894 sec
     gradient                   ...        0 min,  0.145 sec
 * total energy  :  -120.9197239 Eh     change       -0.2210450E-04 Eh
   gradient norm :     0.0011370 Eh/α   predicted    -0.1193917E-04 ( -45.99%)
   displ. norm   :     0.4071144 α      lambda       -0.1647734E-04
   maximum displ.:     0.2383743 α      in ANC's #6, #1, #8, ...

........................................................................
.............................. CYCLE   42 ..............................
........................................................................

 iter      E             dE          RMSdq      gap      omega  full diag
   1   -122.9540317 -0.122954E+03  0.473E-02    2.36       0.0  T
   2   -122.9540325 -0.785943E-06  0.272E-02    2.37       1.0  T
   3   -122.9540311  0.135139E-05  0.456E-03    2.37       2.4  T
   4   -122.9540325 -0.133980E-05  0.221E-03    2.37       4.9  T
   5   -122.9540328 -0.288303E-06  0.949E-04    2.37      11.5  T
   6   -122.9540328 -0.713100E-07  0.323E-04    2.37      33.7  T
     SCC iter.                  ...        0 min,  0.702 sec
     gradient                   ...        0 min,  0.114 sec
 * total energy  :  -120.9197352 Eh     change       -0.1120811E-04 Eh
   gradient norm :     0.0018094 Eh/α   predicted    -0.8850728E-05 ( -21.03%)
   displ. norm   :     0.1278438 α      lambda       -0.2238659E-04
   maximum displ.:     0.0567253 α      in ANC's #1, #6, #7, ...
 * RMSD in coord.:     0.5045686 α      energy gain  -0.3981017E-03 Eh

generating ANC from exact Hessian ...
Using Lindh-Hessian (1995)
 Shifting diagonal of input Hessian by    9.9180619673547143E-003
 Lowest  eigenvalues of input Hessian
    0.000000    0.000000    0.000000    0.000000    0.000000    0.000000
    0.010000    0.010059    0.010182    0.010262    0.010382    0.010418
    0.010539    0.010583    0.010797    0.010985    0.011048    0.011215
 Highest eigenvalues
    2.016056    2.024163    2.026463    2.075174    2.115354    2.125665


........................................................................
.............................. CYCLE   43 ..............................
........................................................................

 iter      E             dE          RMSdq      gap      omega  full diag
   1   -122.9570776 -0.122957E+03  0.193E-02    2.37       0.0  T
   2   -122.9570779 -0.250916E-06  0.108E-02    2.37       1.0  T
   3   -122.9570778  0.872631E-07  0.206E-03    2.37       5.3  T
   4   -122.9570779 -0.994702E-07  0.100E-03    2.37      10.9  T
   5   -122.9570779 -0.418512E-07  0.318E-04    2.37      34.3  T
   6   -122.9570779 -0.577131E-08  0.173E-04    2.37      63.1  T
     SCC iter.                  ...        0 min,  0.732 sec
     gradient                   ...        0 min,  0.114 sec
 * total energy  :  -120.9197492 Eh     change       -0.1400308E-04 Eh
   gradient norm :     0.0016313 Eh/α   predicted     0.0000000E+00 (-100.00%)
   displ. norm   :     0.0314956 α      lambda       -0.1297702E-04
   maximum displ.:     0.0107619 α      in ANC's #15, #12, #2, ...

........................................................................
.............................. CYCLE   44 ..............................
........................................................................

 iter      E             dE          RMSdq      gap      omega  full diag
   1   -122.9556488 -0.122956E+03  0.990E-03    2.37       0.0  T
   2   -122.9556489 -0.104346E-06  0.577E-03    2.37       1.9  T
   3   -122.9556488  0.813729E-07  0.131E-03    2.37       8.3  T
   4   -122.9556489 -0.919130E-07  0.476E-04    2.37      22.9  T
   5   -122.9556489 -0.114416E-07  0.205E-04    2.37      53.1  T
     SCC iter.                  ...        0 min,  0.702 sec
     gradient                   ...        0 min,  0.117 sec
 * total energy  :  -120.9197595 Eh     change       -0.1033666E-04 Eh
   gradient norm :     0.0006396 Eh/α   predicted    -0.6523936E-05 ( -36.89%)
   displ. norm   :     0.0450709 α      lambda       -0.7629521E-05
   maximum displ.:     0.0164285 α      in ANC's #15, #2, #12, ...

........................................................................
.............................. CYCLE   45 ..............................
........................................................................

 iter      E             dE          RMSdq      gap      omega  full diag
   1   -122.9551915 -0.122955E+03  0.103E-02    2.37       0.0  T
   2   -122.9551916 -0.112657E-06  0.524E-03    2.37       2.1  T
   3   -122.9551916  0.993450E-08  0.135E-03    2.37       8.1  T
   4   -122.9551916 -0.478396E-08  0.725E-04    2.37      15.1  T
   5   -122.9551917 -0.233657E-07  0.227E-04    2.37      48.1  T
     SCC iter.                  ...        0 min,  0.465 sec
     gradient                   ...        0 min,  0.121 sec
 * total energy  :  -120.9197683 Eh     change       -0.8772807E-05 Eh
   gradient norm :     0.0009486 Eh/α   predicted    -0.3845178E-05 ( -56.17%)
   displ. norm   :     0.1505835 α      lambda       -0.1988644E-04
   maximum displ.:     0.0558001 α      in ANC's #15, #2, #12, ...

........................................................................
.............................. CYCLE   46 ..............................
........................................................................

 iter      E             dE          RMSdq      gap      omega  full diag
   1   -122.9552237 -0.122955E+03  0.263E-02    2.37       0.0  T
   2   -122.9552243 -0.631114E-06  0.151E-02    2.37       1.0  T
   3   -122.9552240  0.292068E-06  0.327E-03    2.37       3.3  T
   4   -122.9552243 -0.316856E-06  0.143E-03    2.37       7.7  T
   5   -122.9552244 -0.941266E-07  0.623E-04    2.37      17.5  T
   6   -122.9552244 -0.969928E-08  0.355E-04    2.37      30.7  T
     SCC iter.                  ...        0 min,  0.665 sec
     gradient                   ...        0 min,  0.113 sec
 * total energy  :  -120.9197799 Eh     change       -0.1161295E-04 Eh
   gradient norm :     0.0017533 Eh/α   predicted    -0.1004733E-04 ( -13.48%)
   displ. norm   :     0.0984324 α      lambda       -0.1562694E-04
   maximum displ.:     0.0403197 α      in ANC's #2, #15, #8, ...

........................................................................
.............................. CYCLE   47 ..............................
........................................................................

 iter      E             dE          RMSdq      gap      omega  full diag
   1   -122.9560556 -0.122956E+03  0.209E-02    2.37       0.0  T
   2   -122.9560564 -0.734932E-06  0.104E-02    2.37       1.0  T
   3   -122.9560562  0.175227E-06  0.318E-03    2.37       3.4  T
   4   -122.9560563 -0.123954E-06  0.187E-03    2.37       5.8  T
   5   -122.9560565 -0.173915E-06  0.691E-04    2.37      15.8  T
   6   -122.9560565 -0.198092E-07  0.348E-04    2.37      31.4  T
     SCC iter.                  ...        0 min,  0.668 sec
     gradient                   ...        0 min,  0.113 sec
 * total energy  :  -120.9197890 Eh     change       -0.9149396E-05 Eh
   gradient norm :     0.0010701 Eh/α   predicted    -0.7855578E-05 ( -14.14%)
   displ. norm   :     0.0331944 α      lambda       -0.7905131E-05
   maximum displ.:     0.0135120 α      in ANC's #8, #2, #23, ...

........................................................................
.............................. CYCLE   48 ..............................
........................................................................

 iter      E             dE          RMSdq      gap      omega  full diag
   1   -122.9562918 -0.122956E+03  0.893E-03    2.38       0.0  T
   2   -122.9562920 -0.192342E-06  0.450E-03    2.38       2.4  T
   3   -122.9562919  0.581939E-07  0.172E-03    2.38       6.4  T
   4   -122.9562920 -0.946310E-07  0.659E-04    2.38      16.6  T
   5   -122.9562920 -0.604405E-08  0.359E-04    2.38      30.4  T
     SCC iter.                  ...        0 min,  0.598 sec
     gradient                   ...        0 min,  0.113 sec
 * total energy  :  -120.9197968 Eh     change       -0.7769766E-05 Eh
   gradient norm :     0.0006566 Eh/α   predicted    -0.3961901E-05 ( -49.01%)
   displ. norm   :     0.0859440 α      lambda       -0.1171254E-04
   maximum displ.:     0.0356078 α      in ANC's #8, #2, #7, ...

........................................................................
.............................. CYCLE   49 ..............................
........................................................................

 iter      E             dE          RMSdq      gap      omega  full diag
   1   -122.9561574 -0.122956E+03  0.153E-02    2.38       0.0  T
   2   -122.9561577 -0.317357E-06  0.774E-03    2.38       1.4  T
   3   -122.9561576  0.585397E-07  0.235E-03    2.38       4.6  T
   4   -122.9561577 -0.405114E-07  0.127E-03    2.38       8.6  T
   5   -122.9561577 -0.691555E-07  0.405E-04    2.38      27.0  T
   6   -122.9561577 -0.760676E-08  0.197E-04    2.38      55.5  T
     SCC iter.                  ...        0 min,  0.710 sec
     gradient                   ...        0 min,  0.113 sec
 * total energy  :  -120.9198076 Eh     change       -0.1075676E-04 Eh
   gradient norm :     0.0008049 Eh/α   predicted    -0.5876091E-05 ( -45.37%)
   displ. norm   :     0.1437169 α      lambda       -0.8217407E-05
   maximum displ.:     0.0681239 α      in ANC's #2, #8, #1, ...

........................................................................
.............................. CYCLE   50 ..............................
........................................................................

 iter      E             dE          RMSdq      gap      omega  full diag
   1   -122.9557228 -0.122956E+03  0.178E-02    2.38       0.0  T
   2   -122.9557230 -0.171166E-06  0.982E-03    2.38       1.1  T
   3   -122.9557229  0.135270E-06  0.201E-03    2.38       5.4  T
   4   -122.9557230 -0.889981E-07  0.118E-03    2.38       9.3  T
   5   -122.9557231 -0.893858E-07  0.363E-04    2.38      30.1  T
   6   -122.9557231 -0.108626E-07  0.130E-04    2.38      83.7  T
     SCC iter.                  ...        0 min,  0.939 sec
     gradient                   ...        0 min,  0.118 sec
 * total energy  :  -120.9198167 Eh     change       -0.9177506E-05 Eh
   gradient norm :     0.0007649 Eh/α   predicted    -0.4149303E-05 ( -54.79%)
   displ. norm   :     0.1624023 α      lambda       -0.7679413E-05
   maximum displ.:     0.0814355 α      in ANC's #2, #1, #7, ...

........................................................................
.............................. CYCLE   51 ..............................
........................................................................

 iter      E             dE          RMSdq      gap      omega  full diag
   1   -122.9556196 -0.122956E+03  0.205E-02    2.38       0.0  T
   2   -122.9556199 -0.273652E-06  0.110E-02    2.38       1.0  T
   3   -122.9556197  0.156138E-06  0.248E-03    2.38       4.4  T
   4   -122.9556198 -0.885573E-07  0.147E-03    2.38       7.4  T
   5   -122.9556199 -0.129436E-06  0.477E-04    2.38      22.9  T
   6   -122.9556199 -0.190837E-07  0.170E-04    2.38      64.3  T
     SCC iter.                  ...        0 min,  0.720 sec
     gradient                   ...        0 min,  0.142 sec
 * total energy  :  -120.9198256 Eh     change       -0.8840697E-05 Eh
   gradient norm :     0.0005092 Eh/α   predicted    -0.3889526E-05 ( -56.00%)
   displ. norm   :     0.1180523 α      lambda       -0.6135543E-05
   maximum displ.:     0.0638367 α      in ANC's #2, #1, #7, ...

........................................................................
.............................. CYCLE   52 ..............................
........................................................................

 iter      E             dE          RMSdq      gap      omega  full diag
   1   -122.9557383 -0.122956E+03  0.154E-02    2.38       0.0  T
   2   -122.9557385 -0.167056E-06  0.816E-03    2.38       1.3  T
   3   -122.9557384  0.475849E-07  0.179E-03    2.38       6.1  T
   4   -122.9557385 -0.931830E-08  0.106E-03    2.38      10.3  T
   5   -122.9557385 -0.704925E-07  0.349E-04    2.38      31.2  T
   6   -122.9557385 -0.101206E-07  0.132E-04    2.38      82.5  T
     SCC iter.                  ...        0 min,  0.722 sec
     gradient                   ...        0 min,  0.169 sec
 * total energy  :  -120.9198335 Eh     change       -0.7891090E-05 Eh
   gradient norm :     0.0003996 Eh/α   predicted    -0.3091618E-05 ( -60.82%)
   displ. norm   :     0.1530984 α      lambda       -0.9138229E-05
   maximum displ.:     0.0855316 α      in ANC's #2, #1, #7, ...

........................................................................
.............................. CYCLE   53 ..............................
........................................................................

 iter      E             dE          RMSdq      gap      omega  full diag
   1   -122.9559427 -0.122956E+03  0.202E-02    2.38       0.0  T
   2   -122.9559430 -0.276335E-06  0.107E-02    2.38       1.0  T
   3   -122.9559430  0.414360E-07  0.224E-03    2.38       4.9  T
   4   -122.9559430  0.118934E-07  0.129E-03    2.38       8.5  T
   5   -122.9559431 -0.107695E-06  0.379E-04    2.38      28.8  T
   6   -122.9559431 -0.108495E-07  0.160E-04    2.38      68.1  T
     SCC iter.                  ...        0 min,  0.560 sec
     gradient                   ...        0 min,  0.145 sec
 * total energy  :  -120.9198452 Eh     change       -0.1171400E-04 Eh
   gradient norm :     0.0006012 Eh/α   predicted    -0.4619608E-05 ( -60.56%)
   displ. norm   :     0.2159241 α      lambda       -0.1220291E-04
   maximum displ.:     0.1230656 α      in ANC's #2, #1, #7, ...

........................................................................
.............................. CYCLE   54 ..............................
........................................................................

 iter      E             dE          RMSdq      gap      omega  full diag
   1   -122.9559890 -0.122956E+03  0.280E-02    2.38       0.0  T
   2   -122.9559895 -0.507898E-06  0.149E-02    2.38       1.0  T
   3   -122.9559894  0.976634E-07  0.307E-03    2.38       3.6  T
   4   -122.9559894 -0.122320E-08  0.175E-03    2.38       6.2  T
   5   -122.9559896 -0.204148E-06  0.468E-04    2.38      23.3  T
   6   -122.9559896 -0.150173E-07  0.206E-04    2.38      52.9  T
     SCC iter.                  ...        0 min,  0.806 sec
     gradient                   ...        0 min,  0.170 sec
 * total energy  :  -120.9198603 Eh     change       -0.1507865E-04 Eh
   gradient norm :     0.0007473 Eh/α   predicted    -0.6228563E-05 ( -58.69%)
   displ. norm   :     0.2431958 α      lambda       -0.1203433E-04
   maximum displ.:     0.1406027 α      in ANC's #2, #1, #7, ...

........................................................................
.............................. CYCLE   55 ..............................
........................................................................

 iter      E             dE          RMSdq      gap      omega  full diag
   1   -122.9559787 -0.122956E+03  0.293E-02    2.38       0.0  T
   2   -122.9559793 -0.550223E-06  0.157E-02    2.38       1.0  T
   3   -122.9559792  0.132644E-06  0.316E-03    2.38       3.5  T
   4   -122.9559791  0.246664E-07  0.193E-03    2.38       5.6  T
   5   -122.9559794 -0.280043E-06  0.486E-04    2.38      22.5  T
   6   -122.9559794 -0.151505E-07  0.224E-04    2.38      48.8  T
     SCC iter.                  ...        0 min,  0.646 sec
     gradient                   ...        0 min,  0.113 sec
 * total energy  :  -120.9198754 Eh     change       -0.1517693E-04 Eh
   gradient norm :     0.0007341 Eh/α   predicted    -0.6179516E-05 ( -59.28%)
   displ. norm   :     0.2252301 α      lambda       -0.1144193E-04
   maximum displ.:     0.1334510 α      in ANC's #2, #1, #7, ...

........................................................................
.............................. CYCLE   56 ..............................
........................................................................

 iter      E             dE          RMSdq      gap      omega  full diag
   1   -122.9560867 -0.122956E+03  0.263E-02    2.38       0.0  T
   2   -122.9560872 -0.489157E-06  0.140E-02    2.39       1.0  T
   3   -122.9560870  0.106371E-06  0.288E-03    2.39       3.8  T
   4   -122.9560870  0.377041E-07  0.176E-03    2.39       6.2  T
   5   -122.9560873 -0.246022E-06  0.448E-04    2.39      24.3  T
   6   -122.9560873 -0.143325E-07  0.196E-04    2.39      55.6  T
     SCC iter.                  ...        0 min,  0.619 sec
     gradient                   ...        0 min,  0.149 sec
 * total energy  :  -120.9198905 Eh     change       -0.1506053E-04 Eh
   gradient norm :     0.0005768 Eh/α   predicted    -0.5853810E-05 ( -61.13%)
   displ. norm   :     0.2345601 α      lambda       -0.1309476E-04
   maximum displ.:     0.1413453 α      in ANC's #2, #1, #7, ...

........................................................................
.............................. CYCLE   57 ..............................
........................................................................

 iter      E             dE          RMSdq      gap      omega  full diag
   1   -122.9562391 -0.122956E+03  0.258E-02    2.39       0.0  T
   2   -122.9562395 -0.470167E-06  0.139E-02    2.39       1.0  T
   3   -122.9562394  0.129873E-06  0.285E-03    2.39       3.8  T
   4   -122.9562394 -0.422742E-08  0.174E-03    2.39       6.3  T
   5   -122.9562396 -0.230088E-06  0.434E-04    2.39      25.2  T
   6   -122.9562397 -0.130135E-07  0.204E-04    2.39      53.4  T
     SCC iter.                  ...        0 min,  0.628 sec
     gradient                   ...        0 min,  0.144 sec
 * total energy  :  -120.9199079 Eh     change       -0.1744605E-04 Eh
   gradient norm :     0.0004161 Eh/α   predicted    -0.6708564E-05 ( -61.55%)
   displ. norm   :     0.2711714 α      lambda       -0.1521970E-04
   maximum displ.:     0.1645624 α      in ANC's #2, #1, #7, ...

........................................................................
.............................. CYCLE   58 ..............................
........................................................................

 iter      E             dE          RMSdq      gap      omega  full diag
   1   -122.9561100 -0.122956E+03  0.300E-02    2.39       0.0  T
   2   -122.9561107 -0.713973E-06  0.160E-02    2.39       1.0  T
   3   -122.9561105  0.171893E-06  0.343E-03    2.39       3.2  T
   4   -122.9561106 -0.162122E-07  0.207E-03    2.39       5.3  T
   5   -122.9561109 -0.305104E-06  0.523E-04    2.39      20.9  T
   6   -122.9561109 -0.205409E-07  0.237E-04    2.39      46.1  T
     SCC iter.                  ...        0 min,  0.537 sec
     gradient                   ...        0 min,  0.114 sec
 * total energy  :  -120.9199279 Eh     change       -0.1991238E-04 Eh
   gradient norm :     0.0005019 Eh/α   predicted    -0.7862804E-05 ( -60.51%)
   displ. norm   :     0.3012073 α      lambda       -0.1599576E-04
   maximum displ.:     0.1838209 α      in ANC's #2, #1, #7, ...

........................................................................
.............................. CYCLE   59 ..............................
........................................................................

 iter      E             dE          RMSdq      gap      omega  full diag
   1   -122.9561365 -0.122956E+03  0.333E-02    2.40       0.0  T
   2   -122.9561372 -0.781671E-06  0.180E-02    2.40       1.0  T
[...]
    15  16 S        2.064    -0.057   143.407    20.155
    16   6 C        2.973     0.038    27.139     8.545
    17   6 C        2.969    -0.033    28.818     8.805
    18   6 C        2.922    -0.024    28.609     8.771
    19   6 C        2.919    -0.024    28.602     8.770
    20   6 C        2.922    -0.024    28.605     8.771
    21   6 C        2.948    -0.032    28.803     8.802
    22   7 N        2.684    -0.118    23.579     7.212
    23   6 C        3.783    -0.039    21.282     6.572
    24   6 C        3.216     0.052    26.168     8.322
    25   6 C        2.914    -0.044    29.091     8.844
    26   6 C        2.920    -0.030    28.746     8.792
    27   6 C        2.986     0.014    27.681     8.630
    28   6 C        2.919    -0.029    28.733     8.790
    29   6 C        2.915    -0.022    28.562     8.764
    30   6 C        2.916    -0.023    28.590     8.768
    31   6 C        2.917    -0.033    28.814     8.802
    32   6 C        2.988     0.013    27.721     8.637
    33   6 C        2.979    -0.006    28.173     8.707
    34   6 C        2.978    -0.009    28.236     8.716
    35   6 C        3.064     0.053    26.755     8.482
    36   6 C        2.916    -0.052    29.291     8.875
    37   6 C        2.918    -0.033    28.825     8.804
    38   6 C        2.987     0.013    27.725     8.637
    39   6 C        2.919    -0.030    28.761     8.795
    40   6 C        2.915    -0.022    28.560     8.763
    41   6 C        2.917    -0.022    28.567     8.765
    42   6 C        2.917    -0.033    28.813     8.802
    43   6 C        2.988     0.012    27.739     8.639
    44   7 N        2.683    -0.126    23.749     7.238
    45   6 C        3.870    -0.031    21.077     6.528
    46   1 H        0.925     0.061     2.186     2.312
    47   1 H        0.925     0.065     2.137     2.286
    48   1 H        0.925     0.056     2.248     2.345
    49   1 H        0.924     0.066     2.132     2.283
    50   1 H        0.925     0.072     2.069     2.249
    51   1 H        0.925     0.055     2.264     2.353
    52   1 H        0.925     0.052     2.296     2.369
    53   1 H        0.924     0.054     2.273     2.358
    54   1 H        0.925     0.046     2.370     2.408
    55   1 H        0.925     0.058     2.218     2.329
    56   1 H        0.925     0.062     2.176     2.307
    57   1 H        0.926     0.039     2.456     2.451
    58   1 H        0.926     0.051     2.310     2.377
    59   1 H        0.926     0.052     2.297     2.370
    60   1 H        0.926     0.045     2.385     2.415
    61   1 H        0.925     0.026     2.649     2.545
    62   1 H        0.926     0.046     2.371     2.408
    63   1 H        0.926     0.053     2.285     2.364
    64   1 H        0.926     0.057     2.239     2.340
    65   1 H        0.926     0.056     2.244     2.342
    66   1 H        0.926     0.051     2.303     2.373
    67   1 H        0.925     0.067     2.119     2.276
    68   1 H        0.924     0.070     2.084     2.257
    69   1 H        0.924     0.059     2.208     2.324
    70   1 H        0.926     0.042     2.421     2.433
    71   1 H        0.926     0.056     2.249     2.345
    72   1 H        0.926     0.049     2.328     2.386
    73   1 H        0.926     0.051     2.310     2.377
    74   1 H        0.926     0.046     2.365     2.405
    75   1 H        0.926     0.037     2.489     2.467
    76   1 H        0.926     0.039     2.466     2.456
    77   1 H        0.926     0.052     2.291     2.367
    78   1 H        0.926     0.048     2.348     2.396
    79   1 H        0.926     0.051     2.312     2.378
    80   1 H        0.926     0.048     2.349     2.397
    81   1 H        0.926     0.038     2.472     2.459
    82   1 H        0.924     0.054     2.272     2.357
    83   1 H        0.924     0.064     2.154     2.295
    84   1 H        0.924     0.066     2.131     2.283

 Mol. C6AA /au·bohr⁶  :      97485.971733
 Mol. C8AA /au·bohr⁸  :    2627223.498759
 Mol. α(0) /au        :        501.859165


Wiberg/Mayer (AO) data.
largest (>0.10) Wiberg bond orders for each atom

 ---------------------------------------------------------------------------
     #   Z sym  total        # sym  WBO       # sym  WBO       # sym  WBO
 ---------------------------------------------------------------------------
     1   6 C    3.980 --     2 C    1.004    48 H    0.981    47 H    0.980
                            46 H    0.967
     2   6 C    3.956 --     3 C    1.008     1 C    1.004    49 H    0.951
                             4 N    0.939
     3   6 C    3.988 --     2 C    1.008    52 H    0.981    50 H    0.978
                            51 H    0.959
     4   7 N    3.413 --    13 P    1.276     2 C    0.939     5 C    0.919
     5   6 C    3.953 --     6 C    1.003     7 C    0.987    53 H    0.937
                             4 N    0.919
     6   6 C    3.990 --     5 C    1.003    54 H    0.981    56 H    0.979
                            55 H    0.978
     7   6 C    3.983 --     8 C    1.417    12 C    1.405     5 C    0.987
                            10 C    0.110
     8   6 C    3.990 --     9 C    1.440     7 C    1.417    57 H    0.962
                            11 C    0.110
     9   6 C    3.990 --    10 C    1.442     8 C    1.440    58 H    0.970
                            12 C    0.111
    10   6 C    3.989 --     9 C    1.442    11 C    1.435    59 H    0.970
                             7 C    0.110
    11   6 C    3.991 --    12 C    1.447    10 C    1.435    60 H    0.970
                             8 C    0.110
    12   6 C    3.991 --    11 C    1.447     7 C    1.405    61 H    0.965
                             9 C    0.111
    13  15 P    5.135 --     4 N    1.276    22 N    1.228    44 N    1.217
                            14 S    0.953
    14  16 S    2.451 --    15 S    1.170    13 P    0.953
    15  16 S    2.369 --    14 S    1.170    16 C    0.982
    16   6 C    3.954 --    21 C    1.404    17 C    1.401    15 S    0.982
                            19 C    0.102
    17   6 C    3.989 --    18 C    1.440    16 C    1.401    62 H    0.964
                            20 C    0.109
    18   6 C    3.991 --    17 C    1.440    19 C    1.438    63 H    0.968
                            21 C    0.110
    19   6 C    3.982 --    18 C    1.438    20 C    1.433    64 H    0.969
                            16 C    0.102
    20   6 C    3.990 --    21 C    1.443    19 C    1.433    65 H    0.968
                            17 C    0.109
    21   6 C    3.989 --    20 C    1.443    16 C    1.404    66 H    0.966
                            18 C    0.110
    22   7 N    3.429 --    13 P    1.228    23 C    0.973    24 C    0.961
    23   6 C    3.958 --    68 H    0.976    69 H    0.975    22 N    0.973
                            67 H    0.965
    24   6 C    3.950 --    33 C    1.456    25 C    1.289    22 N    0.961
    25   6 C    3.989 --    26 C    1.555    24 C    1.289    70 H    0.964
    26   6 C    3.984 --    25 C    1.555    27 C    1.273    71 H    0.966
                            33 C    0.105
    27   6 C    3.989 --    28 C    1.281    26 C    1.273    32 C    1.254
    28   6 C    3.988 --    29 C    1.555    27 C    1.281    72 H    0.967
                            31 C    0.117
    29   6 C    3.987 --    28 C    1.555    30 C    1.323    73 H    0.969
    30   6 C    3.990 --    31 C    1.551    29 C    1.323    74 H    0.970
    31   6 C    3.989 --    30 C    1.551    32 C    1.283    75 H    0.966
                            28 C    0.117
    32   6 C    3.987 --    31 C    1.283    27 C    1.254    33 C    1.234
    33   6 C    3.986 --    24 C    1.456    32 C    1.234    34 C    1.031
                            26 C    0.105
    34   6 C    3.985 --    35 C    1.457    43 C    1.232    33 C    1.031
                            37 C    0.106
    35   6 C    3.948 --    34 C    1.457    36 C    1.283    44 N    0.976
    36   6 C    3.985 --    37 C    1.556    35 C    1.283    76 H    0.962
    37   6 C    3.984 --    36 C    1.556    38 C    1.274    77 H    0.966
                            34 C    0.106
    38   6 C    3.989 --    39 C    1.280    37 C    1.274    43 C    1.254
    39   6 C    3.989 --    40 C    1.555    38 C    1.280    78 H    0.967
                            42 C    0.118
    40   6 C    3.986 --    39 C    1.555    41 C    1.323    79 H    0.969
    41   6 C    3.990 --    42 C    1.552    40 C    1.323    80 H    0.970
    42   6 C    3.990 --    41 C    1.552    43 C    1.285    81 H    0.965
                            39 C    0.118
    43   6 C    3.986 --    42 C    1.285    38 C    1.254    34 C    1.232
    44   7 N    3.426 --    13 P    1.217    35 C    0.976    45 C    0.973
    45   6 C    3.963 --    84 H    0.977    44 N    0.973    82 H    0.972
                            83 H    0.961
    46   1 H    0.996 --     1 C    0.967
    47   1 H    0.995 --     1 C    0.980
    48   1 H    0.997 --     1 C    0.981
    49   1 H    0.994 --     2 C    0.951
    50   1 H    0.994 --     3 C    0.978
    51   1 H    0.997 --     3 C    0.959
    52   1 H    0.997 --     3 C    0.981
    53   1 H    0.996 --     5 C    0.937
    54   1 H    0.997 --     6 C    0.981
    55   1 H    0.996 --     6 C    0.978
    56   1 H    0.995 --     6 C    0.979
    57   1 H    0.998 --     8 C    0.962
    58   1 H    0.997 --     9 C    0.970
    59   1 H    0.997 --    10 C    0.970
    60   1 H    0.998 --    11 C    0.970
    61   1 H    0.999 --    12 C    0.965
    62   1 H    0.998 --    17 C    0.964
    63   1 H    0.997 --    18 C    0.968
    64   1 H    0.996 --    19 C    0.969
    65   1 H    0.997 --    20 C    0.968
    66   1 H    0.997 --    21 C    0.966
    67   1 H    0.995 --    23 C    0.965
    68   1 H    0.995 --    23 C    0.976
    69   1 H    0.996 --    23 C    0.975
    70   1 H    0.997 --    25 C    0.964
    71   1 H    0.995 --    26 C    0.966
    72   1 H    0.997 --    28 C    0.967
    73   1 H    0.997 --    29 C    0.969
    74   1 H    0.997 --    30 C    0.970
    75   1 H    0.998 --    31 C    0.966
    76   1 H    0.997 --    36 C    0.962
    77   1 H    0.996 --    37 C    0.966
    78   1 H    0.997 --    39 C    0.967
    79   1 H    0.997 --    40 C    0.969
    80   1 H    0.997 --    41 C    0.970
    81   1 H    0.998 --    42 C    0.965
    82   1 H    0.997 --    45 C    0.972
    83   1 H    0.995 --    45 C    0.961
    84   1 H    0.995 --    45 C    0.977
 ---------------------------------------------------------------------------

Topologies differ in total number of bonds
Writing topology from bond orders to xtbtopo.mol

molecular dipole:
                 x           y           z       tot (Debye)
 q only:       -1.099       0.072       0.073
   full:       -0.975       0.034       0.202       2.532
molecular quadrupole (traceless):
                xx          xy          yy          xz          yz          zz
 q only:       15.365      -8.565       2.639       3.182      -8.985     -18.004
  q+dip:       16.874      -9.436      -1.350       3.048      -9.263     -15.524
   full:       13.605     -10.322       3.142       2.035      -9.633     -16.747

           -------------------------------------------------
          |                Geometry Summary                 |
           -------------------------------------------------

      molecular mass/u    :      644.8518358
   center of mass at/Å    :        0.1991270      -0.2494019      -0.1323906
  moments of inertia/u·Å² :        0.5548515E+04   0.7160252E+04   0.9429258E+04
rotational constants/cm⁻¹ :        0.3038224E-02   0.2354335E-02   0.1787800E-02

 * 87 selected distances

     #   Z          #   Z                                           value/Å
     1   6 C        2   6 C                                       1.5266908
     2   6 C        3   6 C                                       1.5226543
     2   6 C        4   7 N                                       1.4711225
     4   7 N        5   6 C                                       1.4829987
     5   6 C        6   6 C                                       1.5256343
     7   6 C        8   6 C                                       1.3896439
     8   6 C        9   6 C                                       1.3849052
     9   6 C       10   6 C                                       1.3837970
    10   6 C       11   6 C                                       1.3847898
     7   6 C       12   6 C                                       1.3925437
    11   6 C       12   6 C                                       1.3829699
     4   7 N       13  15 P                                       1.6445888
    13  15 P       14  16 S                                       2.1506441 (max)
    14  16 S       15  16 S                                       2.0415922
    16   6 C       17   6 C                                       1.3863670
    17   6 C       18   6 C                                       1.3842944
    18   6 C       19   6 C                                       1.3856924
    19   6 C       20   6 C                                       1.3861740
    16   6 C       21   6 C                                       1.3857394
    20   6 C       21   6 C                                       1.3834736
    13  15 P       22   7 N                                       1.6569542
    22   7 N       23   6 C                                       1.4523639
    22   7 N       24   6 C                                       1.4332366
    24   6 C       25   6 C                                       1.4054561
    25   6 C       26   6 C                                       1.3647530
    26   6 C       27   6 C                                       1.4110182
    27   6 C       28   6 C                                       1.4102838
    28   6 C       29   6 C                                       1.3667750
    29   6 C       30   6 C                                       1.4031398
    30   6 C       31   6 C                                       1.3676799
    27   6 C       32   6 C                                       1.4202602
    31   6 C       32   6 C                                       1.4116258
    24   6 C       33   6 C                                       1.3758240
    32   6 C       33   6 C                                       1.4223695
    34   6 C       35   6 C                                       1.3783978
    35   6 C       36   6 C                                       1.4086830
    36   6 C       37   6 C                                       1.3643325
    37   6 C       38   6 C                                       1.4092834
    38   6 C       39   6 C                                       1.4101416
    39   6 C       40   6 C                                       1.3664006
    40   6 C       41   6 C                                       1.4028369
    41   6 C       42   6 C                                       1.3675204
    34   6 C       43   6 C                                       1.4251493
    38   6 C       43   6 C                                       1.4193728
    42   6 C       43   6 C                                       1.4117120
    13  15 P       44   7 N                                       1.6571227
    35   6 C       44   7 N                                       1.4296180
    44   7 N       45   6 C                                       1.4571652
     1   6 C       46   1 H                                       1.0871860
     1   6 C       47   1 H                                       1.0867125
     1   6 C       48   1 H                                       1.0860937
     2   6 C       49   1 H                                       1.0916657
     3   6 C       50   1 H                                       1.0866840
     3   6 C       51   1 H                                       1.0890814
     3   6 C       52   1 H                                       1.0866667
     5   6 C       53   1 H                                       1.0946705
     6   6 C       54   1 H                                       1.0877581
     6   6 C       55   1 H                                       1.0849987
     6   6 C       56   1 H                                       1.0874544
     8   6 C       57   1 H                                       1.0791311
     9   6 C       58   1 H                                       1.0790637
    10   6 C       59   1 H                                       1.0787094
    11   6 C       60   1 H                                       1.0792324
    12   6 C       61   1 H                                       1.0825202
    17   6 C       62   1 H                                       1.0796642
    18   6 C       63   1 H                                       1.0790700
    19   6 C       64   1 H                                       1.0788387
    20   6 C       65   1 H                                       1.0789014
    21   6 C       66   1 H                                       1.0802102
    23   6 C       67   1 H                                       1.0872215
    23   6 C       68   1 H                                       1.0907013
    23   6 C       69   1 H                                       1.0913594
    25   6 C       70   1 H                                       1.0792851
    26   6 C       71   1 H                                       1.0789282
    28   6 C       72   1 H                                       1.0795892
    29   6 C       73   1 H                                       1.0789776
    30   6 C       74   1 H                                       1.0793917
    31   6 C       75   1 H                                       1.0798677
    36   6 C       76   1 H                                       1.0786980 (min)
    37   6 C       77   1 H                                       1.0793098
    39   6 C       78   1 H                                       1.0797853
    40   6 C       79   1 H                                       1.0789821
    41   6 C       80   1 H                                       1.0792608
    42   6 C       81   1 H                                       1.0790505
    45   6 C       82   1 H                                       1.0915755
    45   6 C       83   1 H                                       1.0906012
    45   6 C       84   1 H                                       1.0903587

 * 6 distinct bonds (by element types)

   Z      Z             #   av. dist./Å        max./Å        min./Å
   1 H    6 C          39     1.0835194     1.0946705     1.0786980
   6 C    6 C          37     1.4034699     1.5266908     1.3643325
   6 C    7 N           6     1.4544175     1.4829987     1.4296180
   7 N   15 P           3     1.6528886     1.6571227     1.6445888
  15 P   16 S           1     2.1506441     2.1506441     2.1506441
  16 S   16 S           1     2.0415922     2.0415922     2.0415922


optimized geometry written to: xtbopt.xyz


           -------------------------------------------------
          | TOTAL ENERGY             -120.920368576717 Eh   |
          | GRADIENT NORM               0.000048700303 Eh/α |
          | HOMO-LUMO GAP               2.507864482757 eV   |
           -------------------------------------------------

------------------------------------------------------------------------
 * finished run on 2024/12/16 at 17:57:11.071     
------------------------------------------------------------------------
 total:
 * wall-time:     0 d,  0 h,  2 min, 41.621 sec
 *  cpu-time:     0 d,  0 h, 21 min, 12.252 sec
 * ratio c/w:     7.872 speedup
 SCF:
 * wall-time:     0 d,  0 h,  0 min,  2.103 sec
 *  cpu-time:     0 d,  0 h,  0 min, 16.738 sec
 * ratio c/w:     7.959 speedup
 ANC optimizer:
 * wall-time:     0 d,  0 h,  2 min, 39.200 sec
 *  cpu-time:     0 d,  0 h, 20 min, 53.972 sec
 * ratio c/w:     7.877 speedup

