84
 energy: -120.920368576717 gnorm: 0.000048700303 xtb: 6.7.1 (edcfbbe)
C           -4.67253576797647       -0.66395528116355       -0.87661125483870
C           -3.85309013193287        0.58697535101221       -1.18396403259700
C           -3.53507099234510        0.67978767295552       -2.67014218543758
N           -2.63911081202083        0.65357335122346       -0.35570081125983
C           -2.60603621860234        1.60004651778801        0.78551750125397
C           -3.78492543621683        1.40508054987826        1.73407853498337
C           -2.44329130064403        3.02827987161349        0.31514777244641
C           -3.50979587825094        3.82179045520663       -0.08984439776930
C           -3.29421586595736        5.11798396583199       -0.52730259899825
C           -2.01398425330892        5.64231247787756       -0.55861599024345
C           -0.94547352034182        4.86519313206844       -0.14387177792284
C           -1.16041570031739        3.56930261518357        0.28864752298788
P           -1.26478763777802       -0.20710702736297       -0.62981171641470
S           -1.75424002457939       -2.08266486363102       -1.56147060312512
S            0.00084050966220       -3.12562983115233       -1.55769648378433
C           -0.07555181275196       -4.06723463210628       -0.04249787730636
C            1.06371160910670       -4.09848884220148        0.74687858623054
C            1.05718370923868       -4.85330467218875        1.90725832381386
C           -0.07971840722535       -5.55475571773681        2.27544718671689
C           -1.21278852248114       -5.51365241457279        1.47798840629221
C           -1.21377500138959       -4.77581725434671        0.30769056071741
N           -0.11895146485651        0.65017640730035       -1.46504904913358
C           -0.38753234402413        1.78506470228547       -2.33064329523033
C            1.04363396075177       -0.13358466106552       -1.76216941096317
C            1.26080635351436       -0.63950312397867       -3.05530097274540
C            2.34015007589367       -1.43868427723290       -3.29794679173823
C            3.21233990859822       -1.80975137465136       -2.25268786227458
C            4.28106612342048       -2.70427288205543       -2.46845496319641
C            5.09579344410720       -3.08181269099040       -1.43803916463503
C            4.87359206694034       -2.58397167691408       -0.14514248076004
C            3.85421387108057       -1.70459316496907        0.09591644938319
C            3.00474673940599       -1.28354843192397       -0.94993916072721
C            1.92199276609661       -0.38681881409054       -0.73394295877690
C            1.73947184205976        0.29124007687085        0.56187493264877
C            0.58287020524472        0.13059143760448        1.29429887402223
C            0.46302521119979        0.70603362202782        2.57449057543512
C            1.47164133036858        1.46732430994309        3.08881806077848
C            2.63557600228800        1.72852065867618        2.33841033946773
C            3.66140191541898        2.55965538795328        2.83378420494998
C            4.77028383116929        2.82306950387807        2.08009719158070
C            4.88979148301513        2.27610319736736        0.79382469995433
C            3.91639861463546        1.45860640464678        0.28952617473920
C            2.77079314851524        1.14394879237531        1.05209361418142
N           -0.49351785913705       -0.64964169933682        0.76853054533514
C           -1.21659643833442       -1.51772010780569        1.68881701683262
H           -4.19014853478060       -1.54941795390738       -1.28309804345419
H           -5.65623514565555       -0.57391751274262       -1.32957113613451
H           -4.79986503527860       -0.79356804927716        0.19417680207675
H           -4.44201950890565        1.46529996701784       -0.91296235604831
H           -4.43733494724124        0.48929298110049       -3.24504524932169
H           -2.79370741117242       -0.06729748540798       -2.95003838764272
H           -3.17030069093441        1.66962878567977       -2.93091323917216
H           -1.69218740694570        1.36032557764361        1.33843476974755
H           -3.80670591258537        0.38504298953237        2.11126084967826
H           -4.73910836152499        1.61434456990636        1.26188632448005
H           -3.66880658746295        2.08407373331109        2.57553051696407
H           -4.52218277342923        3.45004774592152       -0.05237784763552
H           -4.13350995830805        5.72130191348365       -0.83709460296777
H           -1.85084246275731        6.65429522633126       -0.89460624418749
H            0.05551445415165        5.26858478708470       -0.15024447125698
H           -0.32148163566965        2.96882418458265        0.61646628450676
H            1.94147180202154       -3.54618810362437        0.44658631446686
H            1.94207753966712       -4.88942843727193        2.52374015611887
H           -0.08166272155571       -6.13963468649271        3.18198210591372
H           -2.09519191611253       -6.06721500936850        1.75898787219918
H           -2.08742745658067       -4.74701459439974       -0.32693980024219
H           -1.24027779874855        2.33663243608789       -1.94250855365222
H            0.48709139452700        2.43626150338367       -2.30604189453505
H           -0.57932568823826        1.49704445127709       -3.36569144002643
H            0.56503001595666       -0.40197106264598       -3.84544647874240
H            2.52054444213865       -1.82447748959236       -4.28926275356425
H            4.43569270153073       -3.09218137052461       -3.46401017975792
H            5.90945238110369       -3.76945035738528       -1.60922886279191
H            5.51348599672915       -2.90324945085198        0.66336462250102
H            3.68362698253857       -1.33040505856743        1.09441400952879
H           -0.42749653948395        0.53979460300472        3.16008843886360
H            1.37781199499796        1.89590174248008        4.07493507751921
H            3.54757606603041        2.98799345118414        3.81841926875099
H            5.55329323805378        3.45913429688728        2.46287655042259
H            5.75895137707377        2.50871924489462        0.19779245969257
H            4.01660759302951        1.05536639596152       -0.70631792417448
H           -1.80378745013466       -0.96313224388063        2.42310304758489
H           -1.90094465658137       -2.14941379201959        1.12133005622393
H           -0.50359571065784       -2.15409594895220        2.21373370361084
