71
 energy: -101.940457301008 gnorm: 0.113196160927 xtb: 6.7.1 (edcfbbe)
C            3.95349000000000       -1.44233900000000        0.74577800000000
C            2.91753400000000       -1.91574200000000        1.73063600000000
C            2.64868100000000       -3.29400400000000        1.81038500000000
C            1.70868900000000       -3.78955200000000        2.71247800000000
C            1.02825700000000       -2.91597000000000        3.55187300000000
C            1.28661600000000       -1.54580700000000        3.48847100000000
C            2.21830000000000       -1.02690500000000        2.57509800000000
S            2.54052100000000        0.74063900000000        2.52841800000000
S            0.66738800000000        1.58888600000000        2.52084100000000
P            0.10079700000000        1.34430600000000        0.50831100000000
N            0.44106700000000        2.69614500000000       -0.38346800000000
C           -0.55861100000000        3.73657300000000       -0.66718200000000
C           -1.30347500000000        4.20610700000000        0.58412300000000
C           -1.53134000000000        3.27245900000000       -1.75447900000000
C            1.83879000000000        3.11189800000000       -0.58708800000000
C            2.12506600000000        3.53939500000000       -2.03435600000000
C            2.29506700000000        4.21338600000000        0.37627600000000
O            0.81462700000000        0.04255600000000       -0.15492800000000
C            0.49371500000000       -0.36111200000000       -1.41263200000000
C            1.33471000000000        0.00751100000000       -2.46384400000000
C            0.99738200000000       -0.29040200000000       -3.79050500000000
C           -0.18831100000000       -0.96125200000000       -4.07742800000000
C           -0.98993300000000       -1.35960300000000       -3.01805000000000
C           -0.63049700000000       -1.11779500000000       -1.67746200000000
C           -1.59759800000000       -1.81829500000000       -0.76240100000000
C           -2.84209400000000       -1.87071300000000       -1.69204500000000
C           -2.29402500000000       -2.08993200000000       -3.10873300000000
C           -1.12767600000000       -3.25012500000000       -0.38543300000000
C           -2.02516400000000       -3.68885200000000        0.78241200000000
C           -2.27762700000000       -2.37344600000000        1.45287600000000
C           -2.77409800000000       -2.16653500000000        2.73094700000000
C           -2.91389500000000       -0.85425100000000        3.18162300000000
C           -2.52053800000000        0.21779600000000        2.36948700000000
C           -1.99876900000000       -0.01593100000000        1.09586500000000
C           -1.94476900000000       -1.30250200000000        0.60451500000000
O           -1.49086400000000        1.02576600000000        0.38421200000000
H            4.79641800000000       -0.98231100000000        1.27115100000000
H            4.35506400000000       -2.27282600000000        0.15464200000000
H            3.52267100000000       -0.72593000000000        0.04073400000000
H            3.17756700000000       -3.99372500000000        1.16580100000000
H            1.51225600000000       -4.85767100000000        2.76000600000000
H            0.29381200000000       -3.29780800000000        4.25625100000000
H            0.74195500000000       -0.88849700000000        4.16369900000000
H           -0.07662900000000        4.63209200000000       -1.07436200000000
H           -1.96950300000000        5.04048600000000        0.33533700000000
H           -1.92370400000000        3.42073500000000        1.02295400000000
H           -0.60541100000000        4.55900800000000        1.34987500000000
H           -0.99183000000000        2.91510500000000       -2.63834900000000
H           -2.16517800000000        4.10684400000000       -2.07710700000000
H           -2.19612200000000        2.47358100000000       -1.41704900000000
H            2.47374400000000        2.23745700000000       -0.40111000000000
H            1.74145500000000        4.53919300000000       -2.26037100000000
H            1.68619700000000        2.84341800000000       -2.75440500000000
H            3.20427600000000        3.55834700000000       -2.21730300000000
H            3.36488000000000        4.41065300000000        0.24449700000000
H            2.14597900000000        3.93279100000000        1.42073100000000
H            1.76695700000000        5.15702400000000        0.20459500000000
H            2.25338000000000        0.54631300000000       -2.25413800000000
H            1.65510400000000        0.02152100000000       -4.59783600000000
H           -0.47050400000000       -1.17047700000000       -5.10425600000000
H           -3.57138600000000       -2.64221800000000       -1.42046600000000
H           -3.37452500000000       -0.90688500000000       -1.65945100000000
H           -2.95959200000000       -1.66015200000000       -3.86265000000000
H           -2.12449600000000       -3.15060300000000       -3.31809900000000
H           -0.08222000000000       -3.22417600000000       -0.04321600000000
H           -1.16823000000000       -3.96596100000000       -1.21327800000000
H           -1.50693800000000       -4.39597100000000        1.43625500000000
H           -2.96442800000000       -4.12323000000000        0.42748900000000
H           -3.04752900000000       -3.00209100000000        3.36803400000000
H           -3.30274300000000       -0.66063700000000        4.17776000000000
H           -2.59215800000000        1.23424500000000        2.74904600000000
71
 energy: -101.956145024848 gnorm: 0.057418155930 xtb: 6.7.1 (edcfbbe)
C            3.94698809024776       -1.43838298659785        0.75166535515886
C            2.91414663893728       -1.92471190965263        1.72540962425266
C            2.64046908907219       -3.28768317395776        1.81341714908264
C            1.70400537861770       -3.77949304836542        2.70904370853508
C            1.02308225832414       -2.90790248917933        3.54297254045795
C            1.28481310440609       -1.54954680052437        3.47994301942471
C            2.21608500418654       -1.05607140716572        2.57127780308713
S            2.56902732535260        0.69976302757557        2.51249157817763
S            0.66780724580684        1.46280418768225        2.50431857399260
P            0.09120029285208        1.37537664230743        0.47570143715726
N            0.42905889203481        2.71537380335396       -0.41932210564580
C           -0.58193577934770        3.74684485314624       -0.67911493497680
C           -1.30690911403704        4.20220333719629        0.58571563734490
C           -1.54519536667632        3.27253848165398       -1.76273270225959
C            1.84082882660359        3.10770504855603       -0.59009580021184
C            2.11751364857694        3.53305352535449       -2.03553358005225
C            2.28579834729857        4.20563073281075        0.37887670996252
O            0.82556349668405        0.06947398778982       -0.13036943518615
C            0.50216296900742       -0.35794400629629       -1.41099160706475
C            1.33118374491293        0.02030166184991       -2.46559969040768
C            1.00435218330033       -0.29242486917897       -3.77771913926612
C           -0.17664674024599       -0.96201297942569       -4.06302166393271
C           -0.97398081872340       -1.36889386385269       -3.01170625524568
C           -0.62573353511869       -1.11779564874040       -1.67609391608358
C           -1.59892030135770       -1.82202577441750       -0.76291542242717
C           -2.85259427588895       -1.87918413915285       -1.67730291859597
C           -2.28828974025118       -2.08214503273025       -3.08966536394705
C           -1.12127566539185       -3.25415413296217       -0.40226466527760
C           -2.01650056517618       -3.67263907529276        0.77370700832490
C           -2.28775463541098       -2.36392263279833        1.44932521324241
C           -2.77371966156416       -2.15067201301352        2.72384252769129
C           -2.90987295643459       -0.84383338448590        3.17321973282498
C           -2.49909205081614        0.21825184606221        2.37865352701816
C           -1.98750722082132       -0.00756390945449        1.10140104446702
C           -1.93890822334372       -1.29951837964469        0.60812157322894
O           -1.48673645804859        1.06012271533530        0.36679308513632
H            4.78069385080964       -0.96932158572701        1.27462528736179
H            4.34308917353357       -2.26831174888528        0.16651963627689
H            3.51881244443704       -0.71264615451695        0.06004910971475
H            3.17288183193559       -3.97750115603465        1.17274166545863
H            1.51396293626551       -4.84316611917983        2.76058275893863
H            0.29930188335537       -3.28327857953866        4.25246516536140
H            0.75330566622928       -0.88107256252263        4.14639561070068
H           -0.05394555329440        4.61816520733860       -1.07438874012806
H           -1.96627059868822        5.03403464290620        0.33902327732530
H           -1.91768564644130        3.40852716390441        1.01284290845560
H           -0.60099203303765        4.54616983552118        1.34215641061641
H           -0.99357880670448        2.91386813184551       -2.63186828046699
H           -2.17233340782417        4.10560841833789       -2.07766940935978
H           -2.19168532641261        2.47212858556196       -1.40891178062395
H            2.44912032146196        2.21626771555916       -0.38454214951377
H            1.73732838412657        4.53049365905248       -2.24981296544433
H            1.67519832673211        2.83785720653422       -2.74731164284337
H            3.19385148365765        3.55173994363547       -2.20233311604950
H            3.35014923633438        4.39495125792677        0.24130024710247
H            2.13151862855460        3.91925147589662        1.41800907822114
H            1.76040870492511        5.14250513460924        0.19820104767987
H            2.24353980198139        0.55793548780018       -2.25385495710135
H            1.65948909798867        0.01611932223558       -4.58012288341073
H           -0.46568518437090       -1.16086949845437       -5.08536073483945
H           -3.56621581482570       -2.65182669004457       -1.39201549552725
H           -3.36970174712665       -0.91440703167774       -1.63663823270803
H           -2.94289653260016       -1.66553332938013       -3.85559210676090
H           -2.13024603507610       -3.13936009274854       -3.31174105223828
H           -0.08153741019817       -3.21091929059274       -0.05962846154150
H           -1.17013719316020       -3.95209011516160       -1.23785734921775
H           -1.51780390774994       -4.38360254098893        1.43268942203667
H           -2.95055051424142       -4.11963951138456        0.42779215069495
H           -3.03807716783202       -2.98331205862282        3.36045840819328
H           -3.30280194585973       -0.65026806888753        4.16116533525132
H           -2.57301837445192        1.23058275189830        2.75118619039794
71
 energy: -101.960889693714 gnorm: 0.027231568603 xtb: 6.7.1 (edcfbbe)
C            3.94298845410562       -1.43700725375833        0.75492400432630
C            2.91884074962344       -1.94269396323855        1.72041548638815
C            2.63592243634113       -3.29653885559716        1.81221046748953
C            1.69914933187497       -3.78147373140799        2.70539249738991
C            1.01957546561669       -2.90902273073355        3.53763976386880
C            1.28692725645148       -1.55751610328204        3.47364438251469
C            2.21995586547108       -1.08927737297024        2.56664571425720
S            2.52112705323895        0.66966247932769        2.44860091705200
S            0.63656224015297        1.43932590572463        2.49252186331112
P            0.08798903684389        1.38772150646641        0.45318954308707
N            0.41421196765434        2.71654523564349       -0.44825551452273
C           -0.60123278277376        3.75061136282441       -0.68980746068771
C           -1.31241793961348        4.19618162636604        0.58268110930001
C           -1.56457405386881        3.27575468175608       -1.76837357865689
C            1.83514182544240        3.09465357688208       -0.59209705402508
C            2.11790807372236        3.51941439340192       -2.03318831120068
C            2.27236337742716        4.18752697438913        0.38188526470978
O            0.84064931637113        0.08784114547061       -0.10570691437305
C            0.51267389782344       -0.35310151150861       -1.40880905421909
C            1.33485685337337        0.03296581691256       -2.46206351180409
C            1.01272749628594       -0.28858224057452       -3.76520131775269
C           -0.16677122704462       -0.95854259185398       -4.04898077667186
C           -0.96249838199291       -1.36912261211401       -3.00230303647034
C           -0.61686636939212       -1.11128636625472       -1.67074189406424
C           -1.59045974987322       -1.81589555446400       -0.75893822176061
C           -2.84878022730547       -1.87623243045892       -1.66325151637826
C           -2.28173025319772       -2.07554537842192       -3.07346693024193
C           -1.11204577811741       -3.24797732624714       -0.40795856756179
C           -2.00676657370542       -3.65957433238415        0.76844650462556
C           -2.28153410407291       -2.35278078295572        1.44756335931503
C           -2.76402499809706       -2.13355418803410        2.71883266984258
C           -2.89599725817969       -0.82814516593910        3.16712454778558
C           -2.47383949328434        0.22779902942993        2.38339940824914
C           -1.97045233050397        0.00168903354347        1.10613009822749
C           -1.92374574251043       -1.29023983982432        0.61223884826977
O           -1.47239382706103        1.09102900244753        0.35276819703734
H            4.76602108909130       -0.95777178608999        1.28169401523956
H            4.33980276762182       -2.25914944712031        0.16728821611937
H            3.50770632799713       -0.70119561831896        0.08048010123122
H            3.16850528069282       -3.98056951262281        1.17155083377089
H            1.50920198831790       -4.84111940462140        2.75912566166925
H            0.29574269895962       -3.27597659057329        4.24608956126069
H            0.76306088304925       -0.87215550541811        4.12408557000108
H           -0.04408933141569        4.60592310372784       -1.07921455203245
H           -1.96963283293644        5.02803484124461        0.34685681730375
H           -1.91395408110910        3.39347036998243        0.99884946238723
H           -0.59642743893099        4.52749672905872        1.33112871803167
H           -1.00702477066756        2.91505613591312       -2.62836332316681
H           -2.19236501354307        4.10319530700327       -2.08130312951781
H           -2.19613426328556        2.47379801271859       -1.40094900727913
H            2.41497758876723        2.18755846164829       -0.36899775686961
H            1.73616307492316        4.51499031803625       -2.23636095399933
H            1.66965707516921        2.82661369678313       -2.73857583802058
H            3.19178237639493        3.53974268503516       -2.19394702848825
H            3.33393302204108        4.37300599938191        0.24534074909374
H            2.10908505513826        3.89243385202890        1.41527489951907
H            1.74647721886907        5.11905797327388        0.19522773037747
H            2.23913661092494        0.57674984162380       -2.24567443946717
H            1.66822967743976        0.01413207083781       -4.56472100495516
H           -0.45711532304698       -1.15811757270998       -5.06787576936329
H           -3.54232837009395       -2.65706461107374       -1.36663293395963
H           -3.36646950510552       -0.91714690394464       -1.61344640452107
H           -2.92867755527283       -1.66687363709583       -3.84833242719575
H           -2.13280140294047       -3.13278985616580       -3.30136979617546
H           -0.07391559443570       -3.20111459504644       -0.07317955234979
H           -1.17616975565960       -3.92903388746211       -1.25138961164563
H           -1.52232517657400       -4.37382618538285        1.43229062718837
H           -2.93839562098049       -4.11385712387775        0.42537893908475
H           -3.03395830605562       -2.96363817912247        3.35166252931014
H           -3.29681891448940       -0.63306714406119        4.14781099316832
H           -2.53431708608043        1.23859872384639        2.75308911759373
71
 energy: -101.962366016563 gnorm: 0.013784389023 xtb: 6.7.1 (edcfbbe)
C            3.93905761956078       -1.43639744957494        0.75377031943325
C            2.91354721784618       -1.95049736917241        1.71046105077317
C            2.63164668676382       -3.30570970401008        1.80921034060585
C            1.69115117261350       -3.78515939401550        2.70229103563252
C            1.01125617804613       -2.90972397329604        3.53247597476768
C            1.27513073654562       -1.55621074279092        3.45970373002131
C            2.20565943926753       -1.09471860017363        2.54681531798466
S            2.54586563084118        0.65816626633466        2.45020575158599
S            0.64634226368567        1.39608780279516        2.47574065583154
P            0.07451515079749        1.38566747326277        0.44005284955916
N            0.39674578030514        2.70765163746370       -0.46622436956861
C           -0.61355737646927        3.75172122546377       -0.70028144691215
C           -1.31601910276617        4.18928086905899        0.57869125613876
C           -1.58447510816963        3.28005412047231       -1.77359876422921
C            1.82195955675033        3.07765905256461       -0.59448854040593
C            2.12094077029672        3.50301551209237       -2.03112704574638
C            2.25517935378095        4.16298698702802        0.38757760647242
O            0.84309608567854        0.09729956723738       -0.09335815278663
C            0.51758985813805       -0.34489221666723       -1.40781369682028
C            1.34252070175685        0.04517078543270       -2.45518457390077
C            1.02313442941815       -0.28182335900655       -3.75805662506303
C           -0.15577978919582       -0.95526880559130       -4.04204505994796
C           -0.95473060068858       -1.36385224439829       -2.99670899733398
C           -0.60898055353126       -1.10265704982040       -1.66603216996099
C           -1.57944083387193       -1.80604640638608       -0.75449753162221
C           -2.83903716800607       -1.87013163410932       -1.65461258095139
C           -2.27513833904358       -2.06907591356894       -3.06542463604304
C           -1.10244427540462       -3.23833256617838       -0.40677317965580
C           -1.99574372602899       -3.64986229244224        0.76973673289080
C           -2.26908550332221       -2.34261951568644        1.44944557885433
C           -2.75519683055245       -2.11888321101375        2.71889923702357
C           -2.88038269661914       -0.81175723972717        3.16754770762577
C           -2.45661215979563        0.24300494300062        2.38299831222515
C           -1.96691492765549        0.00923496041879        1.10355590067846
C           -1.91332356603815       -1.28006238068972        0.61335858751791
O           -1.47379630414476        1.10537173131101        0.33791612270762
H            4.75337154105503       -0.95171715646099        1.29019153276655
H            4.34487982928724       -2.25002337329938        0.16132687947008
H            3.49858470420496       -0.69616298028481        0.08706511159150
H            3.16497619561388       -3.99172442909612        1.16996237444005
H            1.49700380344011       -4.84391846566903        2.75626177783324
H            0.28689662195046       -3.27381509402009        4.24220189145749
H            0.76143490395847       -0.86284167439077        4.10881523709038
H           -0.05252310397518        4.60373422191346       -1.08962224295037
H           -1.97409594365323        5.02432959051779        0.35684687117940
H           -1.91522442936293        3.38239089680922        0.98916970722330
H           -0.59314533221712        4.50975652420002        1.32506630262989
H           -1.03154683189998        2.91856881623604       -2.63584315450982
H           -2.21693272825426        4.10468253462442       -2.08415357381293
H           -2.21168407816108        2.47789617911273       -1.39992214969014
H            2.38617571450030        2.16339013337135       -0.36326742469578
H            1.74123041561855        4.50030026697119       -2.23029960649405
H            1.67106799992923        2.81430372748919       -2.73907987469215
H            3.19529079392833        3.52113772063537       -2.18734890540517
H            3.31784479729339        4.34714054966734        0.25905087083875
H            2.08314137838981        3.86073995415707        1.41748691942910
H            1.73010355880056        5.09487598564998        0.20076703912091
H            2.24233237401007        0.59493192235940       -2.23380626452593
H            1.68022811730749        0.01879827169533       -4.55711192947385
H           -0.44394535980546       -1.15819846602568       -5.06063754484463
H           -3.52093148407173       -2.65893474264854       -1.35216761418453
H           -3.36565263381938       -0.91681700632604       -1.59864641603887
H           -2.92035222598194       -1.65941920563002       -3.84127558954002
H           -2.12987031731969       -3.12765798685286       -3.29255521083309
H           -0.06220299114673       -3.19675963032197       -0.08027592623934
H           -1.17657646656500       -3.91260408392927       -1.25452693312391
H           -1.51329514016368       -4.36390771028930        1.43542364842238
H           -2.92725420189641       -4.10517740925101        0.42564958000630
H           -3.03189515684328       -2.94713735869360        3.35106558552919
H           -3.28198275600878       -0.61413026215956        4.14732595508507
H           -2.50012933893082        1.25528087432060        2.75263837955842
71
 energy: -101.963249737405 gnorm: 0.008026030136 xtb: 6.7.1 (edcfbbe)
C            3.93437810915343       -1.43908709433467        0.75000035064961
C            2.90707299845373       -1.95985703348583        1.70105320747132
C            2.62559140637898       -3.31718758369424        1.80192459943749
C            1.68144229895874       -3.79239879550475        2.69510906222167
C            0.99982383467396       -2.91502353690537        3.52253929934628
C            1.26376372715903       -1.56027320489134        3.44693826340456
C            2.19536170108722       -1.10003077234386        2.53272136519136
S            2.51888220365415        0.65720831075695        2.42064596317028
S            0.62539271296029        1.41409858177676        2.47484120804098
P            0.07007848256493        1.37958373590253        0.43587414636284
N            0.38329722859422        2.69497618347979       -0.48151048035812
C           -0.62301033152677        3.74671180779024       -0.71082416543081
C           -1.31768749571477        4.18070809050585        0.57375909934476
C           -1.60468074098724        3.28153368450463       -1.77890758082704
C            1.80960791872112        3.06021816095802       -0.59881823320116
C            2.12282103829615        3.48697979330799       -2.03139580605125
C            2.23639579815415        4.13687079887671        0.39441063671196
O            0.84878778003472        0.10222401395030       -0.08522694161983
C            0.52563961244297       -0.33688135413133       -1.40588854131783
C            1.35444115055203        0.05583350840957       -2.44803429812335
C            1.03585103760565       -0.27385761863636       -3.75229788423581
C           -0.14208825929746       -0.95081669891199       -4.03635204072541
C           -0.94524957691537       -1.35598003243561       -2.99175084208768
C           -0.59898309717653       -1.09384427910194       -1.66056146845286
C           -1.56722115182176       -1.79563251615730       -0.74877549285367
C           -2.82802808189402       -1.86423823054386       -1.64647051120793
C           -2.26661209332768       -2.05970900839427       -3.05892972055092
C           -1.09097756973833       -3.22857397439172       -0.40312183767622
C           -1.98087612561237       -3.63963909272257        0.77643495805867
C           -2.25580102668227       -2.33234270927586        1.45550176417671
C           -2.74587697882307       -2.10374018826920        2.72361363312924
C           -2.86358256122385       -0.79498126884125        3.17305206773592
C           -2.43903741210630        0.25921998970399        2.38545454738966
C           -1.96032095305846        0.01580105439200        1.10478144010678
C           -1.90188451893027       -1.27051151634002        0.61682753803161
O           -1.47038637786595        1.11215191036797        0.33053941545782
H            4.74380788962966       -0.95384595310941        1.29467317853244
H            4.34905347003266       -2.24427907549674        0.15124033097401
H            3.49137857206194       -0.69570281643948        0.08778061641919
H            3.16256424811735       -4.00695891986183        1.16787170521675
H            1.48712138209844       -4.85176458474505        2.75331210407674
H            0.27577152326566       -3.27795234597046        4.23439551295672
H            0.74941541499658       -0.86229998167516        4.09050256595976
H           -0.06494724344396        4.59860433732856       -1.10282388220179
H           -1.97471068406397        5.02070925930935        0.36374262651303
H           -1.91970469851806        3.37420589432155        0.98139688220506
H           -0.59007158526359        4.49204047703996        1.32009062660519
H           -1.06181801398598        2.92121788125755       -2.64888343737737
H           -2.23967192539869        4.10827028192175       -2.08266716114821
H           -2.23327049774324        2.48095195805457       -1.40306778107737
H            2.36582581642295        2.14298259412511       -0.36485661935605
H            1.74919221289548        4.48747896854447       -2.23016658800154
H            1.67416822121550        2.80293613751635       -2.74574304287395
H            3.19880954070370        3.49926936350642       -2.17991295608613
H            3.30106683070143        4.32056256215568        0.27767439173698
H            2.05456083122643        3.82655358255493        1.42090191365601
H            1.71300906715284        5.07101161135412        0.21064324286335
H            2.25261629354983        0.60778310142838       -2.22378495126085
H            1.69404263976602        0.02603871426594       -4.55168652964913
H           -0.42685817075253       -1.15718139729556       -5.05564043273331
H           -3.50366680035359       -2.65886411572066       -1.34192189249407
H           -3.36361063202779       -0.91543207015806       -1.58629867172322
H           -2.91233243644211       -1.64576022807820       -3.83211681720097
H           -2.12337722876555       -3.11869949675038       -3.28627748001529
H           -0.04783246402315       -3.19250761320346       -0.08368520947915
H           -1.17118351740640       -3.90103366269499       -1.25275341944282
H           -1.49528792171624       -4.35152684698635        1.44218699616305
H           -2.91255999537385       -4.09518307080866        0.43257704144707
H           -3.02694344693288       -2.92970102905714        3.35747611011512
H           -3.25984633800480       -0.59475132396940        4.15503848618013
H           -2.47103304036305        1.27331669196472        2.75362781977917
71
 energy: -101.963695708632 gnorm: 0.008184818476 xtb: 6.7.1 (edcfbbe)
C            3.92792362814781       -1.44267954620457        0.74563710521429
C            2.89634659328686       -1.96477577529466        1.69258869799274
C            2.61717062250661       -3.32319681141579        1.79309741323937
C            1.67093968730160       -3.79797223673409        2.68522274371846
C            0.98482469322295       -2.92037822419368        3.50837386653296
C            1.24646619170273       -1.56495145919689        3.43160613192234
C            2.18201758647701       -1.10192626978526        2.52138553405024
S            2.51063083758841        0.65554517187797        2.41819277262830
S            0.62553244877743        1.43373564000940        2.46866792267506
P            0.06260629596010        1.37548054798640        0.43327851866651
N            0.37123227354521        2.68372429267926       -0.49717225787875
C           -0.63161314341910        3.73997212421059       -0.72056006405569
C           -1.31934302010887        4.17463887824351        0.56807757910006
C           -1.62414048531037        3.28264976770813       -1.78324394656261
C            1.79785204547066        3.04675832610593       -0.60477897883008
C            2.12524649488958        3.47788270636871       -2.03259016591276
C            2.21994524300546        4.11445176206966        0.39987203698262
O            0.84984215639141        0.10511962101100       -0.08012863873476
C            0.53324178346731       -0.33183110084215       -1.40228067520601
C            1.36725073978637        0.06017363227177       -2.44028821089777
C            1.04846578779775       -0.26787021990315       -3.74620459237646
C           -0.12951301554142       -0.94440655656086       -4.03161648242761
C           -0.93674510327593       -1.34766733665245       -2.98858406642463
C           -0.59102391995151       -1.08742463957808       -1.65596423490362