86
 energy: -121.922352218239 gnorm: 0.149130856268 xtb: 6.7.1 (edcfbbe)
C            3.07122100000000       -3.38318500000000       -0.36260300000000
C            1.68396900000000       -4.00657700000000       -0.54229900000000
C            1.51374500000000       -4.65757500000000       -1.91945000000000
N            0.52896300000000       -3.13629300000000       -0.18081500000000
C           -0.29907900000000       -3.74186200000000        0.93262600000000
C           -0.65850000000000       -5.23749400000000        0.66521700000000
C           -1.68096400000000       -3.09868200000000        1.19533800000000
C            0.48782000000000       -3.66654500000000        2.26156800000000
P            0.31699700000000       -1.61938400000000       -0.84941700000000
S            1.51676500000000       -1.23318300000000       -2.56731500000000
S            1.24325200000000        0.75339500000000       -2.99946900000000
C            2.46385100000000        1.58464400000000       -2.00856000000000
C            3.82795200000000        1.33475000000000       -2.17225000000000
C            4.76742600000000        2.00131700000000       -1.38094500000000
C            4.35800800000000        2.93479500000000       -0.41656700000000
C            5.28618500000000        3.60775900000000        0.39437400000000
C            4.85959600000000        4.52932400000000        1.35197400000000
C            3.50128700000000        4.79002400000000        1.51019300000000
C            2.56611200000000        4.13210800000000        0.71008500000000
C            2.97921900000000        3.20334600000000       -0.25774900000000
C            2.04870000000000        2.52981200000000       -1.06525100000000
N            0.56294400000000       -0.47754900000000        0.31038600000000
C            1.93556400000000       -0.39272000000000        0.79988200000000
C           -0.42085600000000        0.08557900000000        1.16747300000000
C           -0.19785400000000        0.12197300000000        2.56254500000000
C           -1.15069000000000        0.58698900000000        3.46203900000000
C           -2.39554000000000        0.99835800000000        3.00911600000000
C           -3.37251200000000        1.39056200000000        3.94196900000000
C           -4.64746500000000        1.76776500000000        3.53081900000000
C           -4.96101100000000        1.74338100000000        2.18245000000000
C           -3.98989500000000        1.36257200000000        1.25088500000000
C           -2.66363100000000        1.00584700000000        1.61892600000000
C           -1.63524200000000        0.63326100000000        0.66461900000000
C           -1.81821100000000        0.88432500000000       -0.73513000000000
C           -1.76122800000000       -0.17575600000000       -1.67999500000000
C           -2.19262100000000        0.07075300000000       -3.00179200000000
C           -2.59825700000000        1.33138900000000       -3.42747800000000
C           -2.54765800000000        2.41344700000000       -2.56022900000000
C           -2.88979600000000        3.69260500000000       -3.03507900000000
C           -2.81075500000000        4.80959200000000       -2.20957800000000
C           -2.37879000000000        4.65967900000000       -0.90261700000000
C           -2.04572200000000        3.38902200000000       -0.42358600000000
C           -2.14141900000000        2.21414200000000       -1.21840500000000
N           -1.27644000000000       -1.46396500000000       -1.28893300000000
C           -1.72437300000000       -2.55725600000000       -2.15838700000000
H            3.20532600000000       -3.01826300000000        0.65984400000000
H            3.84462900000000       -4.14302600000000       -0.52719600000000
H            3.28636600000000       -2.57038300000000       -1.05304600000000
H            1.74187100000000       -4.85437100000000        0.14484700000000
H            1.51782400000000       -3.94584200000000       -2.74358400000000
H            0.57562200000000       -5.21940000000000       -1.97595800000000
H            2.32562800000000       -5.36965900000000       -2.10421200000000
H           -1.37185200000000       -5.60914300000000        1.41259000000000
H           -1.13351200000000       -5.36082300000000       -0.31431100000000
H            0.19580200000000       -5.91724100000000        0.72239100000000
H           -2.16579000000000       -3.56145400000000        2.06450000000000
H           -1.62077800000000       -2.04634100000000        1.43380800000000
H           -2.37332700000000       -3.23335600000000        0.36159400000000
H           -0.07674000000000       -4.13033700000000        3.07966400000000
H            1.44913900000000       -4.18688900000000        2.21197100000000
H            0.68347400000000       -2.63257500000000        2.55177800000000
H            4.17034800000000        0.61921500000000       -2.91574800000000
H            5.82360100000000        1.78651000000000       -1.52534100000000
H            6.35152500000000        3.41788900000000        0.28532700000000
H            5.58792500000000        5.04452400000000        1.97270600000000
H            3.16711100000000        5.50765000000000        2.25453000000000
H            1.50787000000000        4.34697400000000        0.84743500000000
H            0.98478800000000        2.72635000000000       -0.94338500000000
H            2.14252400000000       -1.16303900000000        1.54752700000000
H            2.15120500000000        0.58700300000000        1.24093900000000
H            2.66230900000000       -0.52771700000000       -0.00278700000000
H            0.72514700000000       -0.25543500000000        2.99246400000000
H           -0.91834200000000        0.57347600000000        4.52427700000000
H           -3.14807400000000        1.39319600000000        5.00627800000000
H           -5.39426400000000        2.06414000000000        4.26206700000000
H           -5.95824500000000        2.01317500000000        1.84458400000000
H           -4.29405400000000        1.33177100000000        0.20545300000000
H           -2.18400100000000       -0.70775000000000       -3.75781100000000
H           -2.90418000000000        1.45928100000000       -4.46326400000000
H           -3.21219600000000        3.82942400000000       -4.06519100000000
H           -3.07365000000000        5.79194500000000       -2.59077800000000
H           -2.29516400000000        5.52344300000000       -0.24917300000000
H           -1.68802700000000        3.32683300000000        0.60266400000000
H           -2.81024900000000       -2.52395400000000       -2.30847400000000
H           -1.51840200000000       -3.53373600000000       -1.71655400000000
H           -1.22025500000000       -2.54655000000000       -3.13100900000000
86
 energy: -121.944204891759 gnorm: 0.064397790219 xtb: 6.7.1 (edcfbbe)
C            3.05940821006074       -3.37257572364004       -0.37114892234430
C            1.68056805300622       -4.01703871294174       -0.54419788727650
C            1.51116189037635       -4.64692214000273       -1.92702143501696
N            0.52032770119875       -3.16462277797593       -0.16363917248182
C           -0.30937954974921       -3.75829691174250        0.95076095068141
C           -0.64828077991800       -5.23787294918302        0.65483573134436
C           -1.66804076984337       -3.07554401564703        1.18400601304598
C            0.49150114222332       -3.66701826117417        2.25960570550189
P            0.27900172058639       -1.63684943071564       -0.80329810981240
S            1.55472691464098       -1.24604168168961       -2.50069010452424
S            1.23165973796209        0.73785526706427       -2.95262619063489
C            2.46564555030270        1.58589986310868       -1.98515972778113
C            3.83224714738056        1.33502159616457       -2.16363125145571
C            4.76011224096441        1.99391041180775       -1.38761878290154
C            4.35882130708037        2.93277104093225       -0.41786149919609
C            5.28472701189126        3.61024677786917        0.39689827209780
C            4.85759531595931        4.52014284563051        1.34017066405946
C            3.49451972039331        4.78227699322828        1.50014395361721
C            2.56481321885752        4.13679730474913        0.71436917387900
C            2.97193337357075        3.20389220360613       -0.25683756174315
C            2.04172250763678        2.51704841621719       -1.05742013037899
N            0.55110333497233       -0.45586740890726        0.32585088436055
C            1.93212029598386       -0.38348271670148        0.79953783468610
C           -0.44059850710524        0.10084190987593        1.18054097085476
C           -0.20440641587979        0.10879987091742        2.56760719272280
C           -1.13838487141290        0.57614215690816        3.45761060759296
C           -2.39504263407142        1.00001871196587        3.01122612698022
C           -3.37846214255009        1.39210982005112        3.93903512860972
C           -4.63384159299023        1.76444194292520        3.52220858152409
C           -4.93709662466967        1.73567677116185        2.16183207139713
C           -3.97943309627877        1.37075149534844        1.23476688494757
C           -2.66391875826620        1.01764947364580        1.61558803096803
C           -1.63310623118811        0.64379862963750        0.67917985863176
C           -1.82827418679475        0.88470968099526       -0.74640745530061
C           -1.75503183162867       -0.15706716982203       -1.68411129054132
C           -2.16575402341846        0.07557078736777       -3.00961033042394
C           -2.58395299784684        1.31437575555621       -3.42955687647991
C           -2.54605375647681        2.41135791328041       -2.56180100574346
C           -2.88749328971771        3.69485185550974       -3.02993639967446
C           -2.80857922285263        4.79177880140165       -2.20611634172412
C           -2.37103556646970        4.62779571269258       -0.89267758006591
C           -2.04815178776981        3.37350623791516       -0.41014460422256
C           -2.14770991574598        2.21187479176783       -1.21211074668353
N           -1.30612526937666       -1.46258131950134       -1.28478127057293
C           -1.73147236884911       -2.55918159937108       -2.15860859018505
H            3.19122911555973       -3.01107484899242        0.64849041590328
H            3.82119628397704       -4.13664027564064       -0.53636525449021
H            3.26121388622313       -2.56272109315132       -1.06759379232351
H            1.70113685416759       -4.85145413502678        0.15876480311244
H            1.52087803308267       -3.91504694929814       -2.73289071568618
H            0.57703991270707       -5.20561437707245       -1.97778024862373
H            2.32305581647291       -5.35283286095010       -2.10316561809727
H           -1.35980264254296       -5.58434702673536        1.40472684777092
H           -1.12280243868853       -5.35327710247870       -0.31856489914566
H            0.20706026612436       -5.90733014380864        0.71009118795503
H           -2.13447462423271       -3.55023221658524        2.05017890236344
H           -1.59425600334658       -2.01814382971212        1.41287795924384
H           -2.35253433421753       -3.21796501227765        0.35118569248127
H           -0.07782788940479       -4.12918191730524        3.06503937402332
H            1.44841061006625       -4.18387918245754        2.19925057346077
H            0.67385692583884       -2.63078832579313        2.53847566777385
H            4.16342294720684        0.62090041893947       -2.90677466082926
H            5.81151384870040        1.78551722305504       -1.53056332766572
H            6.34311971670066        3.41767797320917        0.28345580238214
H            5.58086928059735        5.03427101535534        1.95913647161506
H            3.16629210710673        5.49728580361735        2.24258561338436
H            1.51162115477136        4.34768248167651        0.84619692327492
H            0.98363758249820        2.71986638608971       -0.94552861245592
H            2.14665131702645       -1.15048221093973        1.54907899494491
H            2.13324358833682        0.59814024041138        1.23244139680200
H            2.63677088972703       -0.52491708954893       -0.02293300571920
H            0.72752023728696       -0.25405655735968        2.97670673523270
H           -0.90579193425443        0.57783624562031        4.51341188452360
H           -3.14738904332695        1.38882706183170        4.99586591832670
H           -5.38153579054376        2.06048629012478        4.24669819289798
H           -5.93160891444211        2.00001543085447        1.82749750701841
H           -4.27084151080336        1.33867144007730        0.19292155330995
H           -2.17493051994063       -0.71634628216553       -3.74364448940614
H           -2.90738056748018        1.44268523482699       -4.45339437868268
H           -3.20536484326638        3.82237797682037       -4.05617708237173
H           -3.07021297375386        5.77309493667593       -2.58059207050797
H           -2.28495765949492        5.48985527957892       -0.24429461153353
H           -1.69546950003824        3.30067949847702        0.61088396647656
H           -2.81044888371224       -2.50451661412487       -2.31035923679036
H           -1.50912316756331       -3.52043907055925       -1.69380853227083
H           -1.22707833730280       -2.54553203554437       -3.13029221801502
86
 energy: -121.951546470213 gnorm: 0.016034451083 xtb: 6.7.1 (edcfbbe)
C            3.05078225841011       -3.36556967205021       -0.37822300800496
C            1.68099535698276       -4.01971924554587       -0.55104254082060
C            1.50793935317107       -4.63044820952372       -1.93756105080138
N            0.51907294208122       -3.18005234002491       -0.15742666039028
C           -0.30856841643559       -3.76747358907521        0.95784582321041
C           -0.65634865419256       -5.23404398595739        0.66085756200183
C           -1.64817371127040       -3.05874447307040        1.17511845551228
C            0.48883749289371       -3.67330071392422        2.26122160385040
P            0.25330035416381       -1.64617216084157       -0.76406381766185
S            1.55237678979294       -1.26006450732599       -2.43727288751571
S            1.21510321103720        0.70859574518474       -2.90237328644096
C            2.45875728370182        1.57660245845221       -1.95599317842830
C            3.82747432521322        1.32443392297623       -2.15193447670084
C            4.74837652738622        1.98558133533316       -1.39246119356546
C            4.35350091358988        2.92931103114409       -0.41875022698510
C            5.28052244489072        3.61084470164032        0.39584978704701
C            4.85607952939070        4.51350912373996        1.33039653174400
C            3.48818202454218        4.77901762510577        1.49334120290277
C            2.56183831325186        4.14135529276203        0.71824543526361
C            2.96429663030036        3.20284879798618       -0.25422195362488
C            2.03132686210255        2.50486448809574       -1.04631705674857
N            0.54722694302211       -0.42345059153113        0.32928540631379
C            1.93110559445677       -0.36118526120588        0.79531925725584
C           -0.45271966092767        0.11446509130841        1.18886978873469
C           -0.20411272732654        0.10271666430698        2.57390638824365
C           -1.12823895112661        0.57008358647877        3.45661627943531
C           -2.39102842052200        1.00197677304936        3.01074865376138
C           -3.38261260239634        1.39390447016981        3.93162922136208
C           -4.62415585452947        1.76303865490680        3.50463215634973
C           -4.91536962179963        1.73416345326357        2.13347313757599
C           -3.96434541858028        1.38004529764311        1.21399378442316
C           -2.65784146996776        1.02494305167762        1.61228686596383
C           -1.62620766343835        0.64874303931006        0.69030257042215
C           -1.83009862153349        0.87849368363561       -0.75566767847714
C           -1.74918194609963       -0.14664498901869       -1.68332288579598
C           -2.14703353162696        0.07213108832449       -3.01471600016057
C           -2.56845848961069        1.29805611537026       -3.43151005033803
C           -2.53962292883117        2.40321057584294       -2.56186599720074
C           -2.88255027267125        3.69104457717140       -3.02106543156411
C           -2.80352968253740        4.77196125754881       -2.19293731088086
C           -2.36499876664051        4.59398534881089       -0.87317204412679
C           -2.04986041086359        3.35063053760540       -0.39260573942897
C           -2.14609561066728        2.20194874340362       -1.20878944728784
N           -1.32394244687592       -1.46264825259177       -1.28162071680815
C           -1.73928980603907       -2.56114837496113       -2.15708223090059
H            3.17733905061495       -2.99721574658760        0.63648901440498
H            3.80727251820012       -4.12895550010607       -0.54646365403930
H            3.23188717514887       -2.56221315339645       -1.08423220191537
H            1.68132093797107       -4.84530904203239        0.15951514490159
H            1.52408842924285       -3.87454204024346       -2.71964553569890
H            0.57483133474745       -5.18361825156809       -1.99452913627383
H            2.32063647622156       -5.32899811129315       -2.11710304164637
H           -1.36995756354263       -5.57603011554249        1.40434874573350
H           -1.11912635326154       -5.33855856058064       -0.31554588346524
H            0.19644202525380       -5.90099938103165        0.71176032350477
H           -2.11716294057888       -3.51638473797857        2.04456218818088
H           -1.54550970046380       -1.99747244836769        1.38334601729872
H           -2.32587147512164       -3.19707205096292        0.34007841417315
H           -0.07557717657664       -4.13470368936089        3.06565346942489
H            1.44646623429551       -4.18016493252308        2.19015201754958
H            0.65963794098820       -2.63343759282073        2.52586871882418
H            4.14378594818668        0.61064241229215       -2.89782744534425
H            5.79971600753744        1.78903377346159       -1.53465298181565
H            6.33391022783173        3.41104911212983        0.27373972673281
H            5.57510654766462        5.02820253167656        1.94874288911564
H            3.16845737130556        5.49348184170946        2.23602056438006
H            1.50955877373555        4.34682078277410        0.84188362744856
H            0.97686638977117        2.70831087352500       -0.93262025141482
H            2.15543967566873       -1.12729863052488        1.54282343021971
H            2.12079707469308        0.62206317881873        1.22173681080248
H            2.61160744732162       -0.50624779547956       -0.04510380125872
H            0.73247755116428       -0.26106797009041        2.96175471921549
H           -0.90539300519906        0.58077193719246        4.51138684837418
H           -3.14432389865524        1.38328128752922        4.98418961113051
H           -5.37836735183306        2.05792136057467        4.21832367685944
H           -5.90988954149184        1.99038436799109        1.80201528396003
H           -4.23504872607061        1.35211504760016        0.17011585592110
H           -2.14439740565811       -0.72875318492008       -3.73352437823898
H           -2.90254096171113        1.43451584157342       -4.44762869097304
H           -3.19594429586901        3.80904970905011       -4.04699407366971
H           -3.06172243550348        5.75554553977642       -2.55579458352718
H           -2.27259932040861        5.45622003420192       -0.22996853110269
H           -1.70497850745997        3.26007255849654        0.62640934150588
H           -2.81487544541980       -2.49723041357717       -2.30819301570236
H           -1.50128949828818       -3.50775065023077       -1.67489361872321
H           -1.23577999832284       -2.54729435675439       -3.12813765556824
86
 energy: -121.953907431453 gnorm: 0.014591889761 xtb: 6.7.1 (edcfbbe)
C            3.04061117338615       -3.36304355981155       -0.38422740025183
C            1.67482924092581       -4.02319539746030       -0.55154150879997
C            1.50280607575260       -4.60812342279612       -1.94888740682157
N            0.51611060947997       -3.18450889191102       -0.15230628001636
C           -0.30801584421323       -3.76774864923404        0.96317979886374
C           -0.66414025889843       -5.23043010368564        0.66186534854320
C           -1.63294426239081       -3.03299080613589        1.17111683378361
C            0.49285629857694       -3.67489661758176        2.26389284815823
P            0.24835943666838       -1.65161948594487       -0.74543826331812
S            1.55912973748083       -1.28172902264447       -2.40407890556905
S            1.18679430783330        0.68047472967657       -2.86290951498171
C            2.43898181737253        1.55711898505031       -1.93047224235651
C            3.80752054056637        1.30557473788429       -2.13984810042052
C            4.73200291547246        1.97659918812222       -1.39307720805697
C            4.34087678962636        2.92387861382840       -0.41984987666158
C            5.27302537871903        3.60742910791125        0.38854292099174
C            4.85372471570369        4.51173809101379        1.32305354167990
C            3.48513000685084        4.78106864284255        1.49045205077473
C            2.55554085963805        4.14283795402281        0.72075059717623
C            2.95429701601881        3.19798326791773       -0.24840730950342
C            2.01544976799166        2.49243219922402       -1.02845247096906
N            0.55157079834892       -0.40515733670201        0.32439036957083
C            1.93527622518815       -0.33575739673797        0.78549712288451
C           -0.44968077912590        0.11579226843865        1.19318578495844
C           -0.19951186370375        0.09965347529361        2.58007914753805
C           -1.12669246095245        0.56737514731777        3.45928944998112
C           -2.38817740867950        1.00159133748577        3.00709206429905
C           -3.38637192541547        1.39502295646301        3.92087620483510
C           -4.62470600848377        1.76336077602460        3.48270006135296
C           -4.90716262110363        1.73706349966873        2.10775687395683
C           -3.95078590474792        1.38607936766478        1.19549277031358
C           -2.65040334369646        1.02476202034928        1.60921305587481
C           -1.61938938681010        0.64412715553814        0.69334140739583
C           -1.82375071969660        0.86758905004600       -0.75712805028097
C           -1.74087498131199       -0.15301157096955       -1.68174114948110
C           -2.12808903131732        0.06415813123153       -3.01868187748160
C           -2.55249482905744        1.28966371153627       -3.43290390154657
C           -2.52977896326718        2.39286074357547       -2.55847568561046
C           -2.87350360972509        3.68364289547839       -3.00980910842564
C           -2.79461301486214        4.75820339983635       -2.17294110339110
C           -2.35795280284585        4.57288797785530       -0.85157612388160
C           -2.04663974657011        3.32848672559080       -0.37734634073650
C           -2.13940037895050        2.18857812600863       -1.20660851486877
N           -1.32446400355007       -1.46916687289711       -1.27769774268854
C           -1.74183362039797       -2.56856976061488       -2.15042454683843
H            3.16603037984149       -2.98516185285599        0.62654106148903
H            3.80124128124560       -4.12127482886937       -0.55251090016447
H            3.21014540411807       -2.56369617241866       -1.09716728301496
H            1.67153012816469       -4.85396103800902        0.15208112303712
H            1.52325697150340       -3.83242100511302       -2.71200544919286
H            0.56834890799662       -5.15673581581610       -2.02090507734736
H            2.31560304333876       -5.30246416674247       -2.14293628491351
H           -1.38314272889751       -5.56856683633466        1.40178394014854
H           -1.12281477430805       -5.32917000659326       -0.31785187119334
H            0.18527100624446       -5.90305636348212        0.71382331968723
H           -2.11177723871583       -3.46408259157481        2.04814038511174
H           -1.50226310896060       -1.96953183201589        1.35971318340412
H           -2.31068818813956       -3.16773317560505        0.33570684755370
H           -0.06693488341514       -4.14101010562935        3.06884899275341
H            1.45311838937514       -4.17637767068491        2.18799186786796
H            0.65758463660280       -2.63366748486892        2.52744644233051
H            4.11337031254114        0.58781205916545       -2.88604438995947
H            5.78520290379237        1.78954595318991       -1.54015611601606
H            6.32492526250773        3.40199873089971        0.25844619573280
H            5.57309965639251        5.02748833028475        1.93988708305383
H            3.17288039622871        5.49815080738742        2.23377286740684
H            1.50214647454219        4.34685679050681        0.84144888464110
H            0.96171302031044        2.69544692676138       -0.90705059512235
H            2.17065118365351       -1.09814388593935        1.53305836686725
H            2.11679417251177        0.65078791953036        1.20772369905128
H            2.60616366390155       -0.47693152634400       -0.06134577418272
H            0.73890369202459       -0.26706996349365        2.95930286105339
H           -0.91317739574528        0.58155769690174        4.51647480409108
H           -3.14912827707906        1.38187046002442        4.97397207954137
H           -5.38678426404887        2.05857830864822        4.18702613048905
H           -5.90014138415872        1.99376764104017        1.77292247774269
H           -4.20257514774531        1.36437793288449        0.14619450761669
H           -2.11182107439200       -0.73970180328375       -3.73326053621319
H           -2.88690898406124        1.43354399319121       -4.44814082728794
H           -3.18542624079555        3.80118346798666       -4.03657063867518
H           -3.05244444800641        5.74522398507602       -2.52476395879186
H           -2.26709751305419        5.43303862849721       -0.20585861939776
H           -1.70948562985891        3.22152320625886        0.64308153100595
H           -2.81779401247716       -2.50278904493757       -2.29984977048121
H           -1.50085918568609       -3.51040545410997       -1.66374104605401
H           -1.24023334911977       -2.55688160128184       -3.12216613364388
86
 energy: -121.955576235206 gnorm: 0.011290688153 xtb: 6.7.1 (edcfbbe)
C            3.03365884653737       -3.36640513595006       -0.38398825373301
C            1.66957338926682       -4.02617730945164       -0.55644466196435
C            1.49522054514359       -4.58183039996231       -1.96561602089555
N            0.51434661859383       -3.18906572436787       -0.14878246090554
C           -0.30592200360402       -3.76498763297439        0.96894079312867
C           -0.68135673190522       -5.22280880743831        0.66745840860191
C           -1.61481921292025       -3.00480106032698        1.17550335498309
C            0.49958017461205       -3.67843920187535        2.26752862692213
P            0.25220770887902       -1.65850150898867       -0.72915023480556
S            1.52994274288666       -1.28025441621619       -2.39548261577577
S            1.15235733168150        0.67958767721101       -2.84404605807386
C            2.40957757746857        1.54263991419143       -1.90608698410467
C            3.77538197770548        1.28427583308110       -2.12411608737171
C            4.70624964715097        1.96205695584414       -1.38968862314893
C            4.32078603322201        2.91501118511331       -0.41955266255044
C            5.26096369475110        3.60071881312199        0.37815287899625
C            4.84962710656452        4.50971878409517        1.31280480978558
C            3.48216795202781        4.78401336510603        1.48766154011308
C            2.54582511240650        4.14329554235222        0.72671435008368
C            2.93826398096203        3.19090696906490       -0.23782982695002
C            1.99156418520458        2.48159330810805       -1.00512765862671
N            0.56134200072477       -0.38804291983033        0.31533533402307
C            1.94454573648247       -0.30243100418636        0.77133581782625
C           -0.44035299406504        0.11230979561310        1.19672332652605
C           -0.19386746603221        0.09559203055700        2.58597205998428
C           -1.12871503437684        0.56142124865900        3.46012958742696
C           -2.38773404119169        0.99589734572568        2.99935012152039
C           -3.39345108436651        1.39393697206621        3.90379109024877
C           -4.62779910634372        1.76390758309505        3.45204301787476
C           -4.90028324999961        1.74178245979549        2.07477916517295
C           -3.93656375236694        1.38775052319210        1.17203522986553
C           -2.64350485885546        1.01769930653623        1.60267908724810
C           -1.61089418241120        0.63340485256789        0.69332718955477
C           -1.81074988500192        0.85269813277071       -0.75727553631125
C           -1.72564941858159       -0.16517383366202       -1.68223713435060