      -----------------------------------------------------------      
     |                   =====================                   |     
     |                           x T B                           |     
     |                   =====================                   |     
     |                         S. Grimme                         |     
     |          Mulliken Center for Theoretical Chemistry        |     
     |                    University of Bonn                     |     
      -----------------------------------------------------------      

   * xtb version 6.7.1 (edcfbbe) compiled by 'conda@3ef47c1a292c' on 2024-11-25

   xtb is free software: you can redistribute it and/or modify it under
   the terms of the GNU Lesser General Public License as published by
   the Free Software Foundation, either version 3 of the License, or
   (at your option) any later version.
   
   xtb is distributed in the hope that it will be useful,
   but WITHOUT ANY WARRANTY; without even the implied warranty of
   MERCHANTABILITY or FITNESS FOR A PARTICULAR PURPOSE.  See the
   GNU Lesser General Public License for more details.
   
   Cite this work as:
   * C. Bannwarth, E. Caldeweyher, S. Ehlert, A. Hansen, P. Pracht,
     J. Seibert, S. Spicher, S. Grimme, WIREs Comput. Mol. Sci., 2020, 11,
     e01493. DOI: 10.1002/wcms.1493
   
   for GFN2-xTB:
   * C. Bannwarth, S. Ehlert and S. Grimme., J. Chem. Theory Comput., 2019,
     15, 1652-1671. DOI: 10.1021/acs.jctc.8b01176
   for GFN1-xTB:
   * S. Grimme, C. Bannwarth, P. Shushkov, J. Chem. Theory Comput., 2017,
     13, 1989-2009. DOI: 10.1021/acs.jctc.7b00118
   for GFN0-xTB:
   * P. Pracht, E. Caldeweyher, S. Ehlert, S. Grimme, ChemRxiv, 2019, preprint.
     DOI: 10.26434/chemrxiv.8326202.v1
   for GFN-FF:
   * S. Spicher and S. Grimme, Angew. Chem. Int. Ed., 2020, 59, 15665-15673.
     DOI: 10.1002/anie.202004239
   
   for ALPB and GBSA implicit solvation:
   * S. Ehlert, M. Stahn, S. Spicher, S. Grimme, J. Chem. Theory Comput.,
     2021, 17, 4250-4261. DOI: 10.1021/acs.jctc.1c00471
   
   for ddCOSMO and CPCM-X implicit solvation:
   * M. Stahn, S. Ehlert, S. Grimme, J. Phys. Chem. A,
     2023, XX, XXXX-XXXX. DOI: 10.1021/acs.jpca.3c04382
   
   for DFT-D4:
   * E. Caldeweyher, C. Bannwarth and S. Grimme, J. Chem. Phys., 2017,
     147, 034112. DOI: 10.1063/1.4993215
   * E. Caldeweyher, S. Ehlert, A. Hansen, H. Neugebauer, S. Spicher,
     C. Bannwarth and S. Grimme, J. Chem. Phys., 2019, 150, 154122.
     DOI: 10.1063/1.5090222
   * E. Caldeweyher, J.-M. Mewes, S. Ehlert and S. Grimme, Phys. Chem. Chem. Phys.
     2020, 22, 8499-8512. DOI: 10.1039/D0CP00502A
   
   for sTDA-xTB:
   * S. Grimme and C. Bannwarth, J. Chem. Phys., 2016, 145, 054103.
     DOI: 10.1063/1.4959605
   
   in the mass-spec context:
   * V. Asgeirsson, C. Bauer and S. Grimme, Chem. Sci., 2017, 8, 4879.
     DOI: 10.1039/c7sc00601b
   * J. Koopman and S. Grimme, ACS Omega 2019, 4, 12, 15120-15133.
     DOI: 10.1021/acsomega.9b02011
   
   for metadynamics refer to:
   * S. Grimme, J. Chem. Theory Comput., 2019, 155, 2847-2862
     DOI: 10.1021/acs.jctc.9b00143
   
   for SPH calculations refer to:
   * S. Spicher and S. Grimme, J. Chem. Theory Comput., 2021, 17, 1701-1714
     DOI: 10.1021/acs.jctc.0c01306
   
   for ONIOM refer to:
   * C. Plett, A. Katbashev, S. Ehlert, S. Grimme, M. Bursch,
     Phys. Chem. Chem. Phys., 2023, 25, 17860-17868. DOI: 10.1039/D3CP02178E
   
   for DIPRO refer to:
   * J. Kohn, N. Gildemeister, S. Grimme, D. Fazzi, A. Hansen,
     J. Chem. Phys., 2023, just accepted.
   
   for PTB refer to:
   * S. Grimme, M. Mueller, A. Hansen, J. Chem. Phys., 2023, 158, 124111.
     DOI: 10.1063/5.0137838
   
   with help from (in alphabetical order)
   P. Atkinson, C. Bannwarth, F. Bohle, G. Brandenburg, E. Caldeweyher
   M. Checinski, S. Dohm, S. Ehlert, S. Ehrlich, I. Gerasimov, C. Hölzer
   A. Katbashev, J. Kohn, J. Koopman, C. Lavigne, S. Lehtola, F. März, M. Müller,
   F. Musil, H. Neugebauer, J. Pisarek, C. Plett, P. Pracht, F. Pultar,
   J. Seibert, P. Shushkov, S. Spicher, M. Stahn, M. Steiner, T. Strunk,
   J. Stückrath, T. Rose, and J. Unsleber
   
 * started run on 2024/12/16 at 19:26:02.236     
   ID    Z sym.   atoms
    1    6 C      1, 3-22, 24, 28-34, 39-43
    2    7 N      2, 23, 38
    3   15 P      25
    4   16 S      26, 27
    5    9 F      35-37
    6    1 H      44-77

           -------------------------------------------------
          |                Calculation Setup                |
           -------------------------------------------------

          program call               : xtb --gfn2 --opt extreme -P 8 --charge 1 molecule.xyz
          hostname                   : node20
          coordinate file            : molecule.xyz
          omp threads                :                     8


           -------------------------------------------------
          |                 G F N 2 - x T B                 |
           -------------------------------------------------

        Reference                      10.1021/acs.jctc.8b01176
      * Hamiltonian:
        H0-scaling (s, p, d)           1.850000    2.230000    2.230000
        zeta-weighting                 0.500000
      * Dispersion:
        s8                             2.700000
        a1                             0.520000
        a2                             5.000000
        s9                             5.000000
      * Repulsion:
        kExp                           1.500000    1.000000
        rExp                           1.000000
      * Coulomb:
        alpha                          2.000000
        third order                    shell-resolved
        anisotropic                    true
        a3                             3.000000
        a5                             4.000000
        cn-shift                       1.200000
        cn-exp                         4.000000
        max-rad                        5.000000


          ...................................................
          :                      SETUP                      :
          :.................................................:
          :  # basis functions                 224          :
          :  # atomic orbitals                 221          :
          :  # shells                          123          :
          :  # electrons                       222          :
          :  max. iterations                   250          :
          :  Hamiltonian                  GFN2-xTB          :
          :  restarted?                      false          :
          :  GBSA solvation                  false          :
          :  PC potential                    false          :
          :  electronic temp.          300.0000000     K    :
          :  accuracy                    1.0000000          :
          :  -> integral cutoff          0.2500000E+02      :
          :  -> integral neglect         0.1000000E-07      :
          :  -> SCF convergence          0.1000000E-05 Eh   :
          :  -> wf. convergence          0.1000000E-03 e    :
          :  Broyden damping             0.4000000          :
          :  net charge                          1          :
          :  unpaired electrons                  0          :
          ...................................................

 iter      E             dE          RMSdq      gap      omega  full diag
   1   -123.2837268 -0.123284E+03  0.455E+00    1.68       0.0  T
   2   -123.4742325 -0.190506E+00  0.273E+00    1.91       1.0  T
   3   -123.4559995  0.182330E-01  0.134E+00    1.68       1.0  T
   4   -123.4744273 -0.184278E-01  0.678E-01    1.34       1.0  T
   5   -123.5021860 -0.277587E-01  0.279E-01    1.46       1.0  T
   6   -123.5044044 -0.221847E-02  0.138E-01    1.44       1.0  T
   7   -123.5058150 -0.141056E-02  0.453E-02    1.45       1.0  T
   8   -123.5058610 -0.459644E-04  0.212E-02    1.46       1.0  T
   9   -123.5058660 -0.500502E-05  0.948E-03    1.46       1.2  T
  10   -123.5058665 -0.543053E-06  0.506E-03    1.46       2.3  T
  11   -123.5058670 -0.473392E-06  0.260E-03    1.46       4.4  T
  12   -123.5058672 -0.167665E-06  0.145E-03    1.46       7.9  T
  13   -123.5058672 -0.156781E-07  0.797E-04    1.46      14.3  T
  14   -123.5058672 -0.132233E-07  0.416E-04    1.46      27.4  T

   *** convergence criteria satisfied after 14 iterations ***

         #    Occupation            Energy/Eh            Energy/eV
      -------------------------------------------------------------
         1        2.0000           -0.9594590             -26.1082
       ...           ...                  ...                  ...
       105        2.0000           -0.5103488             -13.8873
       106        2.0000           -0.5064122             -13.7802
       107        2.0000           -0.5004863             -13.6189
       108        2.0000           -0.4916676             -13.3790
       109        2.0000           -0.4885373             -13.2938
       110        2.0000           -0.4726913             -12.8626
       111        2.0000           -0.4597480             -12.5104 (HOMO)
       112                         -0.4062162             -11.0537 (LUMO)
       113                         -0.3763891             -10.2421
       114                         -0.3714094             -10.1066
       115                         -0.3624310              -9.8622
       116                         -0.3570820              -9.7167
       ...                                ...                  ...
       221                          1.0695152              29.1030
      -------------------------------------------------------------
                  HL-Gap            0.0535318 Eh            1.4567 eV
             Fermi-level           -0.4329821 Eh          -11.7820 eV

 SCC (total)                   0 d,  0 h,  0 min,  2.267 sec
 SCC setup                      ...        0 min,  0.000 sec (  0.016%)
 Dispersion                     ...        0 min,  0.001 sec (  0.061%)
 classical contributions        ...        0 min,  0.000 sec (  0.004%)
 integral evaluation            ...        0 min,  0.008 sec (  0.339%)
 iterations                     ...        0 min,  2.139 sec ( 94.322%)
 molecular gradient             ...        0 min,  0.114 sec (  5.046%)
 printout                       ...        0 min,  0.005 sec (  0.210%)

         :::::::::::::::::::::::::::::::::::::::::::::::::::::
         ::                     SUMMARY                     ::
         :::::::::::::::::::::::::::::::::::::::::::::::::::::
         :: total energy            -121.841096225804 Eh    ::
         :: gradient norm              0.137941155896 Eh/a0 ::
         :: HOMO-LUMO gap              1.456674468369 eV    ::
         ::.................................................::
         :: SCC energy              -123.500374246385 Eh    ::
         :: -> isotropic ES            0.124872607327 Eh    ::
         :: -> anisotropic ES          0.001375881574 Eh    ::
         :: -> anisotropic XC          0.048819206497 Eh    ::
         :: -> dispersion             -0.120880135551 Eh    ::
         :: repulsion energy           1.659278020580 Eh    ::
         :: add. restraining           0.000000000000 Eh    ::
         :: total charge               1.000000000000 e     ::
         :::::::::::::::::::::::::::::::::::::::::::::::::::::

      ----------------------------------------------------------- 
     |                   =====================                   |
     |                        A N C O P T                        |
     |                   =====================                   |
     |               Approximate Normal Coordinate               |
     |                Rational Function Optimizer                |
      ----------------------------------------------------------- 
      ----------------------------------------------------------- 
     |                   =====================                   |
     |                        A N C O P T                        |
     |                   =====================                   |
     |               Approximate Normal Coordinate               |
     |                Rational Function Optimizer                |
      ----------------------------------------------------------- 

          ...................................................
          :                      SETUP                      :
          :.................................................:
          :   optimization level           extreme          :
          :   max. optcycles                  1540          :
          :   ANC micro-cycles                  20          :
          :   degrees of freedom               225          :
          :.................................................:
          :   RF solver                   davidson          :
          :   write xtbopt.log                true          :
          :   linear?                        false          :
          :   energy convergence         0.5000000E-07 Eh   :
          :   grad. convergence          0.5000000E-04 Eh/α :
          :   maxmium RF displ.          1.0000000          :
          :   Hlow (freq-cutoff)         0.1000000E-01      :
          :   Hmax (freq-cutoff)         5.0000000          :
          :   S6 in model hess.         20.0000000          :
          ...................................................

generating ANC from exact Hessian ...
Using Lindh-Hessian (1995)
 Shifting diagonal of input Hessian by    9.8823772237992980E-003
 Lowest  eigenvalues of input Hessian
    0.000000    0.000000    0.000000    0.000000    0.000000    0.000000
    0.010000    0.010079    0.010092    0.010220    0.010269    0.010416
    0.010505    0.010732    0.010840    0.011174    0.011526    0.011621
 Highest eigenvalues
    1.926266    1.941257    1.987786    2.024819    2.066592    2.069540


........................................................................
.............................. CYCLE    1 ..............................
........................................................................

 iter      E             dE          RMSdq      gap      omega  full diag
   1   -123.5058672 -0.123506E+03  0.227E-04    1.46       0.0  T
   2   -123.5058672 -0.409528E-09  0.171E-04    1.46      66.5  T
   3   -123.5058672 -0.335618E-09  0.128E-04    1.46      89.1  T
     SCC iter.                  ...        0 min,  0.352 sec
     gradient                   ...        0 min,  0.114 sec
 * total energy  :  -121.8410962 Eh     change       -0.2507917E-08 Eh
   gradient norm :     0.1379425 Eh/α   predicted     0.0000000E+00 (-100.00%)
   displ. norm   :     0.3943686 α      lambda       -0.2795280E-01
   maximum displ.:     0.1087198 α      in ANC's #65, #24, #16, ...

........................................................................
.............................. CYCLE    2 ..............................
........................................................................

 iter      E             dE          RMSdq      gap      omega  full diag
   1   -123.5787227 -0.123579E+03  0.253E-01    1.59       0.0  T
   2   -123.5788877 -0.164984E-03  0.136E-01    1.66       1.0  T
   3   -123.5787921  0.955869E-04  0.489E-02    1.69       1.0  T
   4   -123.5789024 -0.110267E-03  0.253E-02    1.70       1.0  T
   5   -123.5789263 -0.238891E-04  0.125E-02    1.69       1.0  T
   6   -123.5789330 -0.679064E-05  0.536E-03    1.69       2.1  T
   7   -123.5789337 -0.640284E-06  0.343E-03    1.69       3.3  T
   8   -123.5789339 -0.171157E-06  0.193E-03    1.69       5.9  T
   9   -123.5789339 -0.393993E-07  0.981E-04    1.69      11.6  T
  10   -123.5789339 -0.965751E-08  0.389E-04    1.69      29.3  T
     SCC iter.                  ...        0 min,  1.221 sec
     gradient                   ...        0 min,  0.114 sec
 * total energy  :  -121.8608417 Eh     change       -0.1974546E-01 Eh
   gradient norm :     0.0604198 Eh/α   predicted    -0.1617799E-01 ( -18.07%)
   displ. norm   :     0.4067171 α      lambda       -0.1032688E-01
   maximum displ.:     0.1400451 α      in ANC's #16, #9, #17, ...

........................................................................
.............................. CYCLE    3 ..............................
........................................................................

 iter      E             dE          RMSdq      gap      omega  full diag
   1   -123.6240862 -0.123624E+03  0.194E-01    1.85       0.0  T
   2   -123.6241546 -0.683887E-04  0.103E-01    1.88       1.0  T
   3   -123.6241217  0.328887E-04  0.314E-02    1.90       1.0  T
   4   -123.6241631 -0.414118E-04  0.146E-02    1.90       1.0  T
   5   -123.6241696 -0.645809E-05  0.726E-03    1.90       1.6  T
   6   -123.6241721 -0.250308E-05  0.299E-03    1.90       3.8  T
   7   -123.6241722 -0.172891E-06  0.186E-03    1.90       6.1  T
   8   -123.6241723 -0.520157E-07  0.100E-03    1.90      11.4  T
   9   -123.6241723 -0.125719E-07  0.579E-04    1.90      19.7  T
  10   -123.6241723 -0.241847E-08  0.220E-04    1.90      51.7  T
     SCC iter.                  ...        0 min,  1.312 sec
     gradient                   ...        0 min,  0.117 sec
 * total energy  :  -121.8671105 Eh     change       -0.6268815E-02 Eh
   gradient norm :     0.0131654 Eh/α   predicted    -0.6017576E-02 (  -4.01%)
   displ. norm   :     0.3788359 α      lambda       -0.2327364E-02
   maximum displ.:     0.1769381 α      in ANC's #9, #16, #17, ...

........................................................................
.............................. CYCLE    4 ..............................
........................................................................

 iter      E             dE          RMSdq      gap      omega  full diag
   1   -123.6283319 -0.123628E+03  0.939E-02    1.96       0.0  T
   2   -123.6283522 -0.202985E-04  0.489E-02    1.97       1.0  T
   3   -123.6283461  0.607187E-05  0.165E-02    1.97       1.0  T
   4   -123.6283514 -0.525519E-05  0.903E-03    1.98       1.3  T
   5   -123.6283557 -0.433832E-05  0.314E-03    1.98       3.6  T
   6   -123.6283561 -0.367057E-06  0.173E-03    1.98       6.6  T
   7   -123.6283562 -0.156494E-06  0.498E-04    1.98      22.9  T
   8   -123.6283562 -0.622857E-08  0.263E-04    1.98      43.4  T
     SCC iter.                  ...        0 min,  1.145 sec
     gradient                   ...        0 min,  0.123 sec
 * total energy  :  -121.8688100 Eh     change       -0.1699503E-02 Eh
   gradient norm :     0.0114524 Eh/α   predicted    -0.1330754E-02 ( -21.70%)
   displ. norm   :     0.4923090 α      lambda       -0.1947203E-02
   maximum displ.:     0.2550707 α      in ANC's #9, #16, #14, ...

........................................................................
.............................. CYCLE    5 ..............................
........................................................................

 iter      E             dE          RMSdq      gap      omega  full diag
   1   -123.6303487 -0.123630E+03  0.992E-02    2.01       0.0  T
   2   -123.6303614 -0.126971E-04  0.532E-02    2.01       1.0  T
   3   -123.6303560  0.544100E-05  0.182E-02    2.00       1.0  T
   4   -123.6303640 -0.801951E-05  0.551E-03    2.00       2.1  T
   5   -123.6303642 -0.160937E-06  0.356E-03    2.00       3.2  T
   6   -123.6303647 -0.520758E-06  0.147E-03    2.00       7.8  T
   7   -123.6303648 -0.546059E-07  0.837E-04    2.00      13.6  T
   8   -123.6303648 -0.163834E-07  0.402E-04    2.00      28.4  T
     SCC iter.                  ...        0 min,  1.407 sec
     gradient                   ...        0 min,  0.115 sec
 * total energy  :  -121.8701182 Eh     change       -0.1308154E-02 Eh
   gradient norm :     0.0106147 Eh/α   predicted    -0.1209572E-02 (  -7.54%)
   displ. norm   :     0.4253276 α      lambda       -0.1087321E-02
   maximum displ.:     0.2389730 α      in ANC's #9, #16, #14, ...

........................................................................
.............................. CYCLE    6 ..............................
........................................................................

 iter      E             dE          RMSdq      gap      omega  full diag
   1   -123.6300849 -0.123630E+03  0.943E-02    2.01       0.0  T
   2   -123.6301013 -0.163697E-04  0.434E-02    2.01       1.0  T
   3   -123.6301015 -0.272397E-06  0.125E-02    2.01       1.0  T
   4   -123.6301014  0.149007E-06  0.679E-03    2.01       1.7  T
   5   -123.6301032 -0.180472E-05  0.284E-03    2.01       4.0  T
   6   -123.6301034 -0.244860E-06  0.147E-03    2.01       7.7  T
   7   -123.6301035 -0.109498E-06  0.705E-04    2.01      16.2  T
   8   -123.6301035 -0.420300E-08  0.418E-04    2.01      27.2  T
     SCC iter.                  ...        0 min,  1.095 sec
     gradient                   ...        0 min,  0.114 sec
 * total energy  :  -121.8708481 Eh     change       -0.7299421E-03 Eh
   gradient norm :     0.0069848 Eh/α   predicted    -0.6420108E-03 ( -12.05%)
   displ. norm   :     0.3372627 α      lambda       -0.5775730E-03
   maximum displ.:     0.1834384 α      in ANC's #9, #16, #14, ...

........................................................................
.............................. CYCLE    7 ..............................
........................................................................

 iter      E             dE          RMSdq      gap      omega  full diag
   1   -123.6323218 -0.123632E+03  0.651E-02    2.01       0.0  T
   2   -123.6323260 -0.421032E-05  0.334E-02    2.01       1.0  T
   3   -123.6323236  0.237015E-05  0.941E-03    2.01       1.2  T
   4   -123.6323257 -0.215506E-05  0.512E-03    2.01       2.2  T
   5   -123.6323269 -0.114770E-05  0.206E-03    2.01       5.5  T
   6   -123.6323272 -0.274676E-06  0.624E-04    2.01      18.2  T
   7   -123.6323272 -0.106841E-07  0.301E-04    2.01      37.9  T
     SCC iter.                  ...        0 min,  0.994 sec
     gradient                   ...        0 min,  0.114 sec
 * total energy  :  -121.8712513 Eh     change       -0.4031847E-03 Eh
   gradient norm :     0.0055874 Eh/α   predicted    -0.3216351E-03 ( -20.23%)
   displ. norm   :     0.2664744 α      lambda       -0.3102881E-03
   maximum displ.:     0.1256694 α      in ANC's #9, #2, #14, ...

........................................................................
.............................. CYCLE    8 ..............................
........................................................................

 iter      E             dE          RMSdq      gap      omega  full diag
   1   -123.6348255 -0.123635E+03  0.496E-02    2.01       0.0  T
   2   -123.6348278 -0.230776E-05  0.261E-02    2.01       1.0  T
   3   -123.6348262  0.156442E-05  0.749E-03    2.01       1.5  T
   4   -123.6348279 -0.168245E-05  0.375E-03    2.01       3.0  T
   5   -123.6348285 -0.574496E-06  0.128E-03    2.01       8.9  T
   6   -123.6348286 -0.711218E-07  0.613E-04    2.01      18.6  T
   7   -123.6348286 -0.142711E-07  0.359E-04    2.01      31.8  T
     SCC iter.                  ...        0 min,  1.015 sec
     gradient                   ...        0 min,  0.117 sec
 * total energy  :  -121.8714668 Eh     change       -0.2154957E-03 Eh
   gradient norm :     0.0041000 Eh/α   predicted    -0.1661611E-03 ( -22.89%)
   displ. norm   :     0.2130117 α      lambda       -0.1761676E-03
   maximum displ.:     0.1042652 α      in ANC's #2, #7, #9, ...

........................................................................
.............................. CYCLE    9 ..............................
........................................................................

 iter      E             dE          RMSdq      gap      omega  full diag
   1   -123.6356707 -0.123636E+03  0.382E-02    2.01       0.0  T
   2   -123.6356720 -0.127315E-05  0.207E-02    2.01       1.0  T
   3   -123.6356708  0.113998E-05  0.603E-03    2.01       1.9  T
   4   -123.6356722 -0.140712E-05  0.260E-03    2.01       4.4  T
   5   -123.6356724 -0.201780E-06  0.710E-04    2.01      16.0  T
   6   -123.6356725 -0.190012E-07  0.378E-04    2.01      30.2  T
     SCC iter.                  ...        0 min,  0.766 sec
     gradient                   ...        0 min,  0.115 sec
 * total energy  :  -121.8715971 Eh     change       -0.1303152E-03 Eh
   gradient norm :     0.0029071 Eh/α   predicted    -0.9208148E-04 ( -29.34%)
   displ. norm   :     0.2232200 α      lambda       -0.1522753E-03
   maximum displ.:     0.1186687 α      in ANC's #2, #7, #4, ...

........................................................................
.............................. CYCLE   10 ..............................
........................................................................

 iter      E             dE          RMSdq      gap      omega  full diag
   1   -123.6360434 -0.123636E+03  0.349E-02    2.02       0.0  T
   2   -123.6360441 -0.744149E-06  0.204E-02    2.02       1.0  T
   3   -123.6360429  0.124702E-05  0.475E-03    2.02       2.4  T
   4   -123.6360444 -0.152721E-05  0.167E-03    2.02       6.8  T
   5   -123.6360445 -0.695737E-07  0.902E-04    2.02      12.6  T
   6   -123.6360445 -0.201295E-07  0.509E-04    2.02      22.4  T
     SCC iter.                  ...        0 min,  0.712 sec
     gradient                   ...        0 min,  0.117 sec
 * total energy  :  -121.8717152 Eh     change       -0.1181109E-03 Eh
   gradient norm :     0.0028391 Eh/α   predicted    -0.7993228E-04 ( -32.32%)
   displ. norm   :     0.2742467 α      lambda       -0.1605380E-03
   maximum displ.:     0.1463303 α      in ANC's #2, #4, #7, ...

........................................................................
.............................. CYCLE   11 ..............................
........................................................................

 iter      E             dE          RMSdq      gap      omega  full diag
   1   -123.6351739 -0.123635E+03  0.453E-02    2.02       0.0  T
   2   -123.6351749 -0.101484E-05  0.262E-02    2.02       1.0  T
   3   -123.6351731  0.175315E-05  0.566E-03    2.02       2.0  T
   4   -123.6351752 -0.210472E-05  0.213E-03    2.02       5.4  T
   5   -123.6351754 -0.146223E-06  0.994E-04    2.02      11.5  T
   6   -123.6351754 -0.570319E-07  0.404E-04    2.02      28.2  T
     SCC iter.                  ...        0 min,  0.765 sec
     gradient                   ...        0 min,  0.116 sec
 * total energy  :  -121.8718447 Eh     change       -0.1295079E-03 Eh
   gradient norm :     0.0038334 Eh/α   predicted    -0.8630739E-04 ( -33.36%)
   displ. norm   :     0.3477262 α      lambda       -0.1866356E-03
   maximum displ.:     0.1834380 α      in ANC's #2, #4, #3, ...

........................................................................
.............................. CYCLE   12 ..............................
........................................................................

 iter      E             dE          RMSdq      gap      omega  full diag
   1   -123.6342448 -0.123634E+03  0.575E-02    2.02       0.0  T
   2   -123.6342461 -0.130089E-05  0.338E-02    2.02       1.0  T
   3   -123.6342440  0.205680E-05  0.590E-03    2.02       1.9  T
   4   -123.6342467 -0.263307E-05  0.196E-03    2.02       5.8  T
   5   -123.6342468 -0.131298E-06  0.990E-04    2.02      11.5  T
   6   -123.6342468 -0.313172E-07  0.459E-04    2.02      24.8  T
     SCC iter.                  ...        0 min,  0.825 sec
     gradient                   ...        0 min,  0.113 sec
 * total energy  :  -121.8719971 Eh     change       -0.1523781E-03 Eh
   gradient norm :     0.0047030 Eh/α   predicted    -0.1046032E-03 ( -31.35%)
   displ. norm   :     0.4076365 α      lambda       -0.2068423E-03
   maximum displ.:     0.2130365 α      in ANC's #2, #4, #3, ...

........................................................................
.............................. CYCLE   13 ..............................
........................................................................

 iter      E             dE          RMSdq      gap      omega  full diag
   1   -123.6333353 -0.123633E+03  0.708E-02    2.03       0.0  T
   2   -123.6333370 -0.172216E-05  0.415E-02    2.03       1.0  T
   3   -123.6333343  0.277709E-05  0.697E-03    2.03       1.6  T
   4   -123.6333377 -0.348062E-05  0.237E-03    2.03       4.8  T
   5   -123.6333379 -0.184929E-06  0.117E-03    2.03       9.7  T
   6   -123.6333380 -0.711103E-07  0.501E-04    2.03      22.7  T
   7   -123.6333380 -0.675271E-08  0.254E-04    2.03      44.8  T
     SCC iter.                  ...        0 min,  0.937 sec
     gradient                   ...        0 min,  0.114 sec
 * total energy  :  -121.8721644 Eh     change       -0.1673516E-03 Eh
   gradient norm :     0.0048295 Eh/α   predicted    -0.1206086E-03 ( -27.93%)
   displ. norm   :     0.4252957 α      lambda       -0.2092084E-03
   maximum displ.:     0.2193327 α      in ANC's #2, #4, #3, ...

........................................................................
.............................. CYCLE   14 ..............................
........................................................................

 iter      E             dE          RMSdq      gap      omega  full diag
   1   -123.6337027 -0.123634E+03  0.752E-02    2.04       0.0  T
   2   -123.6337045 -0.176790E-05  0.440E-02    2.04       1.0  T
   3   -123.6337020  0.252992E-05  0.687E-03    2.04       1.7  T
   4   -123.6337051 -0.317642E-05  0.245E-03    2.04       4.6  T
   5   -123.6337053 -0.186859E-06  0.117E-03    2.04       9.7  T
   6   -123.6337054 -0.722187E-07  0.531E-04    2.04      21.5  T
   7   -123.6337054 -0.890110E-08  0.283E-04    2.04      40.2  T
     SCC iter.                  ...        0 min,  0.968 sec
     gradient                   ...        0 min,  0.114 sec
 * total energy  :  -121.8723310 Eh     change       -0.1665637E-03 Eh
   gradient norm :     0.0042756 Eh/α   predicted    -0.1235284E-03 ( -25.84%)
   displ. norm   :     0.4220915 α      lambda       -0.1870942E-03
   maximum displ.:     0.2140882 α      in ANC's #2, #4, #3, ...

........................................................................
.............................. CYCLE   15 ..............................
........................................................................

 iter      E             dE          RMSdq      gap      omega  full diag
   1   -123.6348354 -0.123635E+03  0.737E-02    2.05       0.0  T
   2   -123.6348372 -0.184032E-05  0.431E-02    2.05       1.0  T
   3   -123.6348345  0.267649E-05  0.722E-03    2.05       1.6  T
   4   -123.6348377 -0.321464E-05  0.283E-03    2.05       4.0  T
   5   -123.6348380 -0.254517E-06  0.126E-03    2.05       9.1  T
   6   -123.6348381 -0.930319E-07  0.563E-04    2.05      20.2  T
   7   -123.6348381 -0.107686E-07  0.313E-04    2.05      36.4  T
     SCC iter.                  ...        0 min,  0.856 sec
     gradient                   ...        0 min,  0.118 sec
 * total energy  :  -121.8724794 Eh     change       -0.1483880E-03 Eh
   gradient norm :     0.0039520 Eh/α   predicted    -0.1102159E-03 ( -25.72%)
   displ. norm   :     0.4282477 α      lambda       -0.1603918E-03
   maximum displ.:     0.2168099 α      in ANC's #4, #2, #3, ...

........................................................................
.............................. CYCLE   16 ..............................
........................................................................

 iter      E             dE          RMSdq      gap      omega  full diag
   1   -123.6360192 -0.123636E+03  0.717E-02    2.06       0.0  T
   2   -123.6360209 -0.174478E-05  0.417E-02    2.06       1.0  T
   3   -123.6360177  0.328205E-05  0.775E-03    2.06       1.5  T
   4   -123.6360215 -0.382678E-05  0.303E-03    2.06       3.8  T
   5   -123.6360218 -0.282204E-06  0.128E-03    2.06       8.9  T
   6   -123.6360219 -0.109473E-06  0.519E-04    2.06      21.9  T
   7   -123.6360219 -0.858087E-08  0.279E-04    2.06      40.8  T
     SCC iter.                  ...        0 min,  0.890 sec
     gradient                   ...        0 min,  0.116 sec
 * total energy  :  -121.8726071 Eh     change       -0.1277318E-03 Eh
   gradient norm :     0.0039079 Eh/α   predicted    -0.9490401E-04 ( -25.70%)
   displ. norm   :     0.4165684 α      lambda       -0.1376020E-03
   maximum displ.:     0.2133734 α      in ANC's #3, #4, #2, ...

........................................................................
.............................. CYCLE   17 ..............................
........................................................................

 iter      E             dE          RMSdq      gap      omega  full diag
   1   -123.6371856 -0.123637E+03  0.684E-02    2.07       0.0  T
   2   -123.6371872 -0.166938E-05  0.395E-02    2.07       1.0  T
   3   -123.6371833  0.391557E-05  0.822E-03    2.07       1.4  T
   4   -123.6371877 -0.434450E-05  0.332E-03    2.07       3.4  T
   5   -123.6371881 -0.382084E-06  0.137E-03    2.07       8.3  T
   6   -123.6371882 -0.135941E-06  0.471E-04    2.07      24.2  T
   7   -123.6371882 -0.562719E-08  0.251E-04    2.07      45.4  T
     SCC iter.                  ...        0 min,  1.034 sec
     gradient                   ...        0 min,  0.111 sec
 * total energy  :  -121.8727151 Eh     change       -0.1079210E-03 Eh
   gradient norm :     0.0033381 Eh/α   predicted    -0.8074192E-04 ( -25.18%)
   displ. norm   :     0.4222389 α      lambda       -0.1100601E-03
   maximum displ.:     0.2234574 α      in ANC's #3, #4, #2, ...

........................................................................
.............................. CYCLE   18 ..............................
........................................................................

 iter      E             dE          RMSdq      gap      omega  full diag
   1   -123.6366269 -0.123637E+03  0.665E-02    2.08       0.0  T
   2   -123.6366284 -0.156523E-05  0.384E-02    2.08       1.0  T
   3   -123.6366234  0.496633E-05  0.887E-03    2.08       1.3  T
   4   -123.6366290 -0.552259E-05  0.324E-03    2.08       3.5  T
   5   -123.6366293 -0.329957E-06  0.143E-03    2.08       8.0  T
   6   -123.6366294 -0.145637E-06  0.471E-04    2.08      24.2  T
   7   -123.6366295 -0.403475E-08  0.248E-04    2.08      45.9  T
     SCC iter.                  ...        0 min,  0.750 sec
     gradient                   ...        0 min,  0.113 sec
 * total energy  :  -121.8727991 Eh     change       -0.8402074E-04 Eh
   gradient norm :     0.0030687 Eh/α   predicted    -0.6484629E-04 ( -22.82%)
   displ. norm   :     0.3328588 α      lambda       -0.1123424E-03
   maximum displ.:     0.1944830 α      in ANC's #3, #4, #2, ...

........................................................................
.............................. CYCLE   19 ..............................
........................................................................

 iter      E             dE          RMSdq      gap      omega  full diag
   1   -123.6396430 -0.123640E+03  0.541E-02    2.09       0.0  T
   2   -123.6396455 -0.244931E-05  0.309E-02    2.09       1.0  T
   3   -123.6396417  0.379294E-05  0.806E-03    2.09       1.4  T
   4   -123.6396456 -0.391757E-05  0.370E-03    2.09       3.1  T
   5   -123.6396463 -0.676986E-06  0.145E-03    2.09       7.9  T
   6   -123.6396464 -0.102416E-06  0.561E-04    2.09      20.3  T
   7   -123.6396464 -0.154411E-07  0.259E-04    2.09      43.9  T
     SCC iter.                  ...        0 min,  0.947 sec
     gradient                   ...        0 min,  0.118 sec
 * total energy  :  -121.8728569 Eh     change       -0.5784874E-04 Eh
   gradient norm :     0.0045097 Eh/α   predicted    -0.6240003E-04 (   7.87%)
   displ. norm   :     0.4233359 α      lambda       -0.1036288E-03
   maximum displ.:     0.2427029 α      in ANC's #3, #2, #4, ...

........................................................................
.............................. CYCLE   20 ..............................
........................................................................

 iter      E             dE          RMSdq      gap      omega  full diag
   1   -123.6364468 -0.123636E+03  0.643E-02    2.09       0.0  T
   2   -123.6364491 -0.230061E-05  0.373E-02    2.10       1.0  T
   3   -123.6364415  0.768425E-05  0.104E-02    2.09       1.1  T
   4   -123.6364499 -0.845655E-05  0.321E-03    2.10       3.5  T
   5   -123.6364504 -0.444543E-06  0.141E-03    2.10       8.1  T
   6   -123.6364505 -0.891818E-07  0.594E-04    2.10      19.2  T
   7   -123.6364505 -0.137010E-07  0.279E-04    2.10      40.8  T
     SCC iter.                  ...        0 min,  0.857 sec
     gradient                   ...        0 min,  0.127 sec
 * total energy  :  -121.8729241 Eh     change       -0.6715197E-04 Eh
   gradient norm :     0.0035886 Eh/α   predicted    -0.6110302E-04 (  -9.01%)
   displ. norm   :     0.1215931 α      lambda       -0.5529064E-04
   maximum displ.:     0.0809149 α      in ANC's #3, #8, #2, ...
 * RMSD in coord.:     0.5969844 α      energy gain  -0.3182785E-01 Eh

generating ANC from exact Hessian ...
Using Lindh-Hessian (1995)
 Shifting diagonal of input Hessian by    9.8600599801098848E-003
 Lowest  eigenvalues of input Hessian
    0.000000    0.000000    0.000000    0.000000    0.000000    0.000000
    0.010000    0.010093    0.010138    0.010249    0.010315    0.010469
    0.010592    0.010660    0.010780    0.011184    0.011511    0.011615
 Highest eigenvalues
    2.000810    2.007909    2.024943    2.071526    2.113138    2.124561


........................................................................
.............................. CYCLE   21 ..............................
........................................................................

 iter      E             dE          RMSdq      gap      omega  full diag
   1   -123.6367385 -0.123637E+03  0.196E-02    2.10       0.0  T
   2   -123.6367387 -0.170260E-06  0.115E-02    2.10       1.0  T
   3   -123.6367375  0.117373E-05  0.380E-03    2.10       3.0  T
   4   -123.6367388 -0.129566E-05  0.864E-04    2.10      13.2  T
   5   -123.6367389 -0.280005E-07  0.393E-04    2.10      29.0  T
   6   -123.6367389 -0.409597E-08  0.172E-04    2.10      66.2  T
     SCC iter.                  ...        0 min,  0.733 sec
     gradient                   ...        0 min,  0.116 sec
 * total energy  :  -121.8729724 Eh     change       -0.4829540E-04 Eh
   gradient norm :     0.0028856 Eh/α   predicted     0.0000000E+00 (-100.00%)
   displ. norm   :     0.0432358 α      lambda       -0.3331183E-04
   maximum displ.:     0.0233698 α      in ANC's #2, #8, #5, ...

........................................................................
.............................. CYCLE   22 ..............................
........................................................................

 iter      E             dE          RMSdq      gap      omega  full diag
   1   -123.6375424 -0.123638E+03  0.106E-02    2.10       0.0  T
   2   -123.6375425 -0.107391E-06  0.601E-03    2.10       1.9  T
   3   -123.6375424  0.149085E-06  0.164E-03    2.10       6.9  T
   4   -123.6375426 -0.153525E-06  0.688E-04    2.10      16.6  T
   5   -123.6375426 -0.262538E-07  0.263E-04    2.10      43.4  T
     SCC iter.                  ...        0 min,  0.804 sec
     gradient                   ...        0 min,  0.122 sec
 * total energy  :  -121.8730018 Eh     change       -0.2948019E-04 Eh
   gradient norm :     0.0015322 Eh/α   predicted    -0.1730608E-04 ( -41.30%)
   displ. norm   :     0.2178959 α      lambda       -0.7881432E-04
   maximum displ.:     0.1166616 α      in ANC's #2, #8, #5, ...

........................................................................
.............................. CYCLE   23 ..............................
........................................................................

 iter      E             dE          RMSdq      gap      omega  full diag
   1   -123.6392280 -0.123639E+03  0.460E-02    2.10       0.0  T
   2   -123.6392293 -0.134974E-05  0.263E-02    2.10       1.0  T
   3   -123.6392256  0.368303E-05  0.732E-03    2.09       1.6  T
   4   -123.6392296 -0.396824E-05  0.248E-03    2.09       4.6  T
   5   -123.6392299 -0.307824E-06  0.102E-03    2.09      11.2  T
   6   -123.6392299 -0.502121E-07  0.406E-04    2.09      28.1  T
   7   -123.6392300 -0.655226E-08  0.169E-04    2.09      67.3  T
     SCC iter.                  ...        0 min,  0.981 sec
     gradient                   ...        0 min,  0.116 sec
 * total energy  :  -121.8730675 Eh     change       -0.6565789E-04 Eh
   gradient norm :     0.0035339 Eh/α   predicted    -0.4023940E-04 ( -38.71%)
   displ. norm   :     0.0874276 α      lambda       -0.3521376E-04
   maximum displ.:     0.0518093 α      in ANC's #2, #8, #5, ...

........................................................................
.............................. CYCLE   24 ..............................
........................................................................

 iter      E             dE          RMSdq      gap      omega  full diag
   1   -123.6389748 -0.123639E+03  0.177E-02    2.09       0.0  T
   2   -123.6389750 -0.236795E-06  0.992E-03    2.09       1.1  T
   3   -123.6389747  0.273509E-06  0.246E-03    2.09       4.6  T
   4   -123.6389750 -0.217369E-06  0.131E-03    2.09       8.7  T
   5   -123.6389751 -0.118377E-06  0.424E-04    2.09      26.9  T
   6   -123.6389751 -0.821390E-08  0.174E-04    2.09      65.5  T
     SCC iter.                  ...        0 min,  0.858 sec
     gradient                   ...        0 min,  0.117 sec
 * total energy  :  -121.8730992 Eh     change       -0.3166956E-04 Eh
   gradient norm :     0.0033082 Eh/α   predicted    -0.1774180E-04 ( -43.98%)
   displ. norm   :     0.2362741 α      lambda       -0.1040769E-03
   maximum displ.:     0.1345337 α      in ANC's #2, #8, #5, ...

........................................................................
.............................. CYCLE   25 ..............................
........................................................................

 iter      E             dE          RMSdq      gap      omega  full diag
   1   -123.6375134 -0.123638E+03  0.421E-02    2.09       0.0  T
   2   -123.6375141 -0.675079E-06  0.246E-02    2.09       1.0  T
   3   -123.6375107  0.343039E-05  0.623E-03    2.09       1.8  T
   4   -123.6375145 -0.377834E-05  0.140E-03    2.09       8.1  T
   5   -123.6375146 -0.119846E-06  0.646E-04    2.09      17.6  T
   6   -123.6375146 -0.112565E-07  0.278E-04    2.09      41.0  T
     SCC iter.                  ...        0 min,  0.872 sec
     gradient                   ...        0 min,  0.125 sec
 * total energy  :  -121.8731867 Eh     change       -0.8749611E-04 Eh
   gradient norm :     0.0021082 Eh/α   predicted    -0.5494479E-04 ( -37.20%)
   displ. norm   :     0.3948983 α      lambda       -0.1346099E-03
   maximum displ.:     0.2261136 α      in ANC's #2, #8, #5, ...

........................................................................
.............................. CYCLE   26 ..............................
........................................................................

 iter      E             dE          RMSdq      gap      omega  full diag
   1   -123.6355394 -0.123636E+03  0.670E-02    2.09       0.0  T
   2   -123.6355409 -0.158581E-05  0.389E-02    2.09       1.0  T
   3   -123.6355334  0.750003E-05  0.922E-03    2.09       1.2  T
   4   -123.6355417 -0.829188E-05  0.228E-03    2.09       5.0  T
   5   -123.6355420 -0.274848E-06  0.108E-03    2.09      10.5  T
   6   -123.6355421 -0.474850E-07  0.404E-04    2.09      28.2  T
   7   -123.6355421 -0.350386E-08  0.176E-04    2.09      64.9  T
     SCC iter.                  ...        0 min,  1.243 sec
     gradient                   ...        0 min,  0.124 sec
 * total energy  :  -121.8732934 Eh     change       -0.1067252E-03 Eh
   gradient norm :     0.0032061 Eh/α   predicted    -0.7780609E-04 ( -27.10%)
   displ. norm   :     0.4074077 α      lambda       -0.1133921E-03
   maximum displ.:     0.2360545 α      in ANC's #2, #8, #5, ...

........................................................................
.............................. CYCLE   27 ..............................
........................................................................

 iter      E             dE          RMSdq      gap      omega  full diag
   1   -123.6343297 -0.123634E+03  0.657E-02    2.09       0.0  T
   2   -123.6343310 -0.138130E-05  0.383E-02    2.09       1.0  T
   3   -123.6343228  0.820093E-05  0.948E-03    2.09       1.2  T
   4   -123.6343319 -0.909184E-05  0.216E-03    2.09       5.3  T
   5   -123.6343322 -0.227551E-06  0.111E-03    2.09      10.3  T
   6   -123.6343322 -0.461990E-07  0.380E-04    2.09      30.0  T
   7   -123.6343322 -0.335774E-08  0.172E-04    2.09      66.1  T
     SCC iter.                  ...        0 min,  1.023 sec
     gradient                   ...        0 min,  0.113 sec
 * total energy  :  -121.8733871 Eh     change       -0.9366265E-04 Eh
   gradient norm :     0.0043060 Eh/α   predicted    -0.6611073E-04 ( -29.42%)
   displ. norm   :     0.4369483 α      lambda       -0.1288354E-03
   maximum displ.:     0.2539915 α      in ANC's #2, #8, #5, ...

........................................................................
.............................. CYCLE   28 ..............................
........................................................................

 iter      E             dE          RMSdq      gap      omega  full diag
   1   -123.6344582 -0.123634E+03  0.647E-02    2.09       0.0  T
   2   -123.6344598 -0.153828E-05  0.376E-02    2.10       1.0  T
   3   -123.6344521  0.764492E-05  0.948E-03    2.10       1.2  T
   4   -123.6344606 -0.847624E-05  0.238E-03    2.10       4.8  T
   5   -123.6344609 -0.265192E-06  0.116E-03    2.10       9.8  T
   6   -123.6344609 -0.520417E-07  0.422E-04    2.10      27.0  T
   7   -123.6344609 -0.473298E-08  0.196E-04    2.10      58.1  T
     SCC iter.                  ...        0 min,  0.866 sec
     gradient                   ...        0 min,  0.113 sec
 * total energy  :  -121.8734975 Eh     change       -0.1104528E-03 Eh
   gradient norm :     0.0042374 Eh/α   predicted    -0.7671670E-04 ( -30.54%)
   displ. norm   :     0.5218863 α      lambda       -0.1694092E-03
   maximum displ.:     0.3068463 α      in ANC's #2, #8, #5, ...

........................................................................
.............................. CYCLE   29 ..............................
........................................................................

 iter      E             dE          RMSdq      gap      omega  full diag
   1   -123.6359484 -0.123636E+03  0.714E-02    2.10       0.0  T
   2   -123.6359504 -0.205951E-05  0.416E-02    2.10       1.0  T
   3   -123.6359409  0.955496E-05  0.106E-02    2.10       1.1  T
   4   -123.6359515 -0.105959E-04  0.280E-03    2.10       4.1  T
   5   -123.6359518 -0.361796E-06  0.139E-03    2.10       8.2  T
   6   -123.6359519 -0.762993E-07  0.485E-04    2.10      23.5  T
   7   -123.6359519 -0.626569E-08  0.230E-04    2.10      49.5  T
     SCC iter.                  ...        0 min,  0.794 sec
     gradient                   ...        0 min,  0.123 sec
 * total energy  :  -121.8736386 Eh     change       -0.1410699E-03 Eh
   gradient norm :     0.0031454 Eh/α   predicted    -0.1077809E-03 ( -23.60%)
   displ. norm   :     0.5632666 α      lambda       -0.1672230E-03
   maximum displ.:     0.3322797 α      in ANC's #2, #8, #5, ...

........................................................................
.............................. CYCLE   30 ..............................
........................................................................

 iter      E             dE          RMSdq      gap      omega  full diag
   1   -123.6370465 -0.123637E+03  0.722E-02    2.11       0.0  T
   2   -123.6370491 -0.262798E-05  0.418E-02    2.11       1.0  T
   3   -123.6370401  0.903215E-05  0.110E-02    2.11       1.0  T
   4   -123.6370499 -0.983845E-05  0.359E-03    2.11       3.2  T
   5   -123.6370506 -0.642991E-06  0.164E-03    2.11       6.9  T
   6   -123.6370507 -0.120560E-06  0.578E-04    2.11      19.7  T
   7   -123.6370507 -0.957681E-08  0.295E-04    2.11      38.7  T
     SCC iter.                  ...        0 min,  0.895 sec
     gradient                   ...        0 min,  0.114 sec
 * total energy  :  -121.8737777 Eh     change       -0.1391411E-03 Eh
   gradient norm :     0.0025606 Eh/α   predicted    -0.1101388E-03 ( -20.84%)
   displ. norm   :     0.5628383 α      lambda       -0.1574942E-03
   maximum displ.:     0.3298471 α      in ANC's #2, #8, #5, ...

........................................................................
.............................. CYCLE   31 ..............................
........................................................................

 iter      E             dE          RMSdq      gap      omega  full diag
   1   -123.6381098 -0.123638E+03  0.691E-02    2.11       0.0  T
   2   -123.6381123 -0.254680E-05  0.395E-02    2.12       1.0  T
   3   -123.6381057  0.665502E-05  0.993E-03    2.11       1.1  T
   4   -123.6381127 -0.705117E-05  0.403E-03    2.12       2.8  T
   5   -123.6381135 -0.823196E-06  0.171E-03    2.12       6.7  T
   6   -123.6381137 -0.155981E-06  0.555E-04    2.12      20.5  T
   7   -123.6381137 -0.818233E-08  0.296E-04    2.12      38.5  T
     SCC iter.                  ...        0 min,  1.045 sec
     gradient                   ...        0 min,  0.115 sec
 * total energy  :  -121.8739113 Eh     change       -0.1335400E-03 Eh
   gradient norm :     0.0026215 Eh/α   predicted    -0.1036934E-03 ( -22.35%)
   displ. norm   :     0.5812241 α      lambda       -0.1588682E-03
   maximum displ.:     0.3315547 α      in ANC's #2, #8, #1, ...

........................................................................
.............................. CYCLE   32 ..............................
........................................................................

 iter      E             dE          RMSdq      gap      omega  full diag
   1   -123.6381221 -0.123638E+03  0.703E-02    2.12       0.0  T
   2   -123.6381250 -0.287130E-05  0.395E-02    2.12       1.0  T
   3   -123.6381198  0.513910E-05  0.973E-03    2.12       1.2  T
   4   -123.6381248 -0.502173E-05  0.477E-03    2.12       2.4  T
   5   -123.6381261 -0.126173E-05  0.181E-03    2.12       6.3  T
   6   -123.6381263 -0.188384E-06  0.603E-04    2.12      18.9  T
   7   -123.6381263 -0.813129E-08  0.343E-04    2.12      33.2  T
     SCC iter.                  ...        0 min,  0.924 sec
     gradient                   ...        0 min,  0.114 sec
 * total energy  :  -121.8740493 Eh     change       -0.1380695E-03 Eh
   gradient norm :     0.0026549 Eh/α   predicted    -0.1062714E-03 ( -23.03%)
   displ. norm   :     0.4956286 α      lambda       -0.1659075E-03
   maximum displ.:     0.2537060 α      in ANC's #2, #1, #3, ...

........................................................................
.............................. CYCLE   33 ..............................
........................................................................

 iter      E             dE          RMSdq      gap      omega  full diag
   1   -123.6401436 -0.123640E+03  0.602E-02    2.12       0.0  T
   2   -123.6401462 -0.259806E-05  0.327E-02    2.12       1.0  T
   3   -123.6401451  0.108418E-05  0.735E-03    2.12       1.6  T
   4   -123.6401456 -0.463607E-06  0.439E-03    2.12       2.6  T
   5   -123.6401468 -0.119434E-05  0.161E-03    2.12       7.1  T
   6   -123.6401470 -0.177769E-06  0.504E-04    2.12      22.6  T
   7   -123.6401470 -0.559889E-08  0.296E-04    2.12      38.5  T
     SCC iter.                  ...        0 min,  0.977 sec
     gradient                   ...        0 min,  0.116 sec
 * total energy  :  -121.8741888 Eh     change       -0.1395140E-03 Eh
   gradient norm :     0.0035669 Eh/α   predicted    -0.1033313E-03 ( -25.93%)
   displ. norm   :     0.5819731 α      lambda       -0.1859656E-03
   maximum displ.:     0.2979604 α      in ANC's #2, #1, #3, ...

........................................................................
.............................. CYCLE   34 ..............................
........................................................................

 iter      E             dE          RMSdq      gap      omega  full diag
   1   -123.6360550 -0.123636E+03  0.725E-02    2.12       0.0  T
   2   -123.6360580 -0.299784E-05  0.404E-02    2.12       1.0  T
   3   -123.6360540  0.404581E-05  0.926E-03    2.12       1.2  T
   4   -123.6360572 -0.328362E-05  0.527E-03    2.12       2.2  T
   5   -123.6360591 -0.182114E-05  0.171E-03    2.12       6.6  T
   6   -123.6360592 -0.177666E-06  0.576E-04    2.12      19.8  T
   7   -123.6360592 -0.705123E-08  0.311E-04    2.12      36.6  T
     SCC iter.                  ...        0 min,  0.939 sec
     gradient                   ...        0 min,  0.115 sec
 * total energy  :  -121.8743395 Eh     change       -0.1506069E-03 Eh
   gradient norm :     0.0038079 Eh/α   predicted    -0.1244769E-03 ( -17.35%)
   displ. norm   :     0.3855208 α      lambda       -0.1858289E-03
   maximum displ.:     0.1954452 α      in ANC's #1, #3, #6, ...

........................................................................
.............................. CYCLE   35 ..............................
........................................................................

 iter      E             dE          RMSdq      gap      omega  full diag
   1   -123.6378072 -0.123638E+03  0.504E-02    2.12       0.0  T
   2   -123.6378090 -0.176292E-05  0.271E-02    2.12       1.0  T
   3   -123.6378089  0.100970E-06  0.565E-03    2.12       2.0  T
   4   -123.6378088  0.877085E-07  0.299E-03    2.12       3.8  T
   5   -123.6378094 -0.571020E-06  0.724E-04    2.12      15.7  T
   6   -123.6378094 -0.262712E-07  0.335E-04    2.12      34.0  T
     SCC iter.                  ...        0 min,  0.685 sec
     gradient                   ...        0 min,  0.122 sec
 * total energy  :  -121.8744967 Eh     change       -0.1572034E-03 Eh
   gradient norm :     0.0045602 Eh/α   predicted    -0.1067261E-03 ( -32.11%)
   displ. norm   :     0.4583246 α      lambda       -0.2135507E-03
   maximum displ.:     0.2408859 α      in ANC's #1, #3, #6, ...

........................................................................
.............................. CYCLE   36 ..............................
........................................................................

 iter      E             dE          RMSdq      gap      omega  full diag
   1   -123.6382149 -0.123638E+03  0.574E-02    2.12       0.0  T
   2   -123.6382168 -0.188081E-05  0.312E-02    2.12       1.0  T
   3   -123.6382160  0.769641E-06  0.674E-03    2.12       1.7  T
   4   -123.6382163 -0.260551E-06  0.391E-03    2.12       2.9  T
   5   -123.6382172 -0.958336E-06  0.120E-03    2.12       9.5  T
   6   -123.6382173 -0.976945E-07  0.457E-04    2.12      24.9  T
   7   -123.6382173 -0.615144E-08  0.230E-04    2.12      49.6  T
     SCC iter.                  ...        0 min,  0.937 sec
     gradient                   ...        0 min,  0.115 sec
 * total energy  :  -121.8746825 Eh     change       -0.1858823E-03 Eh
   gradient norm :     0.0044708 Eh/α   predicted    -0.1292057E-03 ( -30.49%)
   displ. norm   :     0.4869402 α      lambda       -0.2334568E-03
   maximum displ.:     0.2694173 α      in ANC's #1, #3, #6, ...

........................................................................
.............................. CYCLE   37 ..............................
........................................................................

 iter      E             dE          RMSdq      gap      omega  full diag
   1   -123.6387091 -0.123639E+03  0.594E-02    2.12       0.0  T
   2   -123.6387112 -0.212084E-05  0.328E-02    2.12       1.0  T
   3   -123.6387097  0.151142E-05  0.756E-03    2.12       1.5  T
   4   -123.6387109 -0.121806E-05  0.399E-03    2.13       2.9  T
   5   -123.6387117 -0.780198E-06  0.152E-03    2.13       7.5  T
   6   -123.6387119 -0.174655E-06  0.484E-04    2.13      23.5  T
   7   -123.6387119 -0.848337E-08  0.246E-04    2.13      46.4  T
     SCC iter.                  ...        0 min,  0.789 sec
     gradient                   ...        0 min,  0.113 sec
 * total energy  :  -121.8748814 Eh     change       -0.1988510E-03 Eh
   gradient norm :     0.0041807 Eh/α   predicted    -0.1444068E-03 ( -27.38%)
   displ. norm   :     0.5285364 α      lambda       -0.2255781E-03
   maximum displ.:     0.2990017 α      in ANC's #1, #3, #6, ...

........................................................................
.............................. CYCLE   38 ..............................
........................................................................

 iter      E             dE          RMSdq      gap      omega  full diag
   1   -123.6386032 -0.123639E+03  0.623E-02    2.12       0.0  T
   2   -123.6386056 -0.237687E-05  0.342E-02    2.13       1.0  T
   3   -123.6386033  0.232209E-05  0.836E-03    2.13       1.4  T
   4   -123.6386052 -0.191329E-05  0.438E-03    2.13       2.6  T
   5   -123.6386062 -0.100752E-05  0.164E-03    2.13       6.9  T
   6   -123.6386064 -0.188416E-06  0.561E-04    2.13      20.3  T
   7   -123.6386064 -0.120175E-07  0.264E-04    2.13      43.2  T
     SCC iter.                  ...        0 min,  0.957 sec
     gradient                   ...        0 min,  0.113 sec
 * total energy  :  -121.8750675 Eh     change       -0.1861507E-03 Eh
   gradient norm :     0.0031147 Eh/α   predicted    -0.1442990E-03 ( -22.48%)
   displ. norm   :     0.5158756 α      lambda       -0.1906466E-03
   maximum displ.:     0.3012044 α      in ANC's #1, #3, #6, ...

........................................................................
.............................. CYCLE   39 ..............................
........................................................................

 iter      E             dE          RMSdq      gap      omega  full diag
   1   -123.6391734 -0.123639E+03  0.588E-02    2.13       0.0  T
   2   -123.6391754 -0.197621E-05  0.325E-02    2.14       1.0  T
   3   -123.6391724  0.297272E-05  0.830E-03    2.14       1.4  T
   4   -123.6391751 -0.266859E-05  0.418E-03    2.14       2.7  T
   5   -123.6391760 -0.926544E-06  0.156E-03    2.14       7.3  T
   6   -123.6391762 -0.161720E-06  0.566E-04    2.14      20.1  T
   7   -123.6391762 -0.100717E-07  0.299E-04    2.14      38.1  T
     SCC iter.                  ...        0 min,  1.032 sec
     gradient                   ...        0 min,  0.117 sec
 * total energy  :  -121.8752193 Eh     change       -0.1517082E-03 Eh
   gradient norm :     0.0030849 Eh/α   predicted    -0.1206924E-03 ( -20.44%)
   displ. norm   :     0.4686436 α      lambda       -0.1405203E-03
   maximum displ.:     0.2770740 α      in ANC's #1, #3, #6, ...

........................................................................
.............................. CYCLE   40 ..............................
........................................................................

 iter      E             dE          RMSdq      gap      omega  full diag
   1   -123.6391083 -0.123639E+03  0.514E-02    2.14       0.0  T
   2   -123.6391101 -0.182898E-05  0.282E-02    2.15       1.0  T
   3   -123.6391081  0.203664E-05  0.747E-03    2.15       1.5  T
   4   -123.6391098 -0.175250E-05  0.384E-03    2.15       3.0  T
   5   -123.6391106 -0.755039E-06  0.158E-03    2.15       7.2  T
   6   -123.6391107 -0.149341E-06  0.600E-04    2.15      19.0  T
   7   -123.6391108 -0.116967E-07  0.332E-04    2.15      34.3  T
     SCC iter.                  ...        0 min,  0.907 sec
     gradient                   ...        0 min,  0.114 sec
 * total energy  :  -121.8753315 Eh     change       -0.1122789E-03 Eh
   gradient norm :     0.0031529 Eh/α   predicted    -0.8569539E-04 ( -23.68%)
   displ. norm   :     0.3852511 α      lambda       -0.1154862E-03
   maximum displ.:     0.2366868 α      in ANC's #1, #3, #6, ...

........................................................................
.............................. CYCLE   41 ..............................
........................................................................

 iter      E             dE          RMSdq      gap      omega  full diag
   1   -123.6410463 -0.123641E+03  0.407E-02    2.15       0.0  T
   2   -123.6410476 -0.133316E-05  0.228E-02    2.16       1.0  T
   3   -123.6410462  0.143272E-05  0.632E-03    2.16       1.8  T
   4   -123.6410476 -0.143445E-05  0.292E-03    2.16       3.9  T
   5   -123.6410479 -0.326059E-06  0.143E-03    2.16       8.0  T
   6   -123.6410481 -0.120008E-06  0.566E-04    2.16      20.1  T
   7   -123.6410481 -0.920706E-08  0.345E-04    2.16      33.1  T
     SCC iter.                  ...        0 min,  0.908 sec
     gradient                   ...        0 min,  0.120 sec
 * total energy  :  -121.8754221 Eh     change       -0.9053472E-04 Eh
   gradient norm :     0.0033548 Eh/α   predicted    -0.6631738E-04 ( -26.75%)
   displ. norm   :     0.4041382 α      lambda       -0.1124574E-03
   maximum displ.:     0.2391638 α      in ANC's #1, #3, #6, ...

........................................................................
.............................. CYCLE   42 ..............................
........................................................................

 iter      E             dE          RMSdq      gap      omega  full diag
   1   -123.6398928 -0.123640E+03  0.428E-02    2.16       0.0  T
   2   -123.6398944 -0.163060E-05  0.240E-02    2.16       1.0  T
   3   -123.6398930  0.138999E-05  0.653E-03    2.16       1.7  T
   4   -123.6398944 -0.143263E-05  0.304E-03    2.16       3.7  T
   5   -123.6398947 -0.304723E-06  0.158E-03    2.16       7.2  T
   6   -123.6398949 -0.140154E-06  0.663E-04    2.16      17.2  T
   7   -123.6398949 -0.120382E-07  0.404E-04    2.16      28.2  T
     SCC iter.                  ...        0 min,  0.831 sec
     gradient                   ...        0 min,  0.113 sec
 * total energy  :  -121.8755075 Eh     change       -0.8542225E-04 Eh
   gradient norm :     0.0033943 Eh/α   predicted    -0.6541537E-04 ( -23.42%)
   displ. norm   :     0.3437199 α      lambda       -0.1154678E-03
   maximum displ.:     0.2120733 α      in ANC's #1, #3, #8, ...
 * RMSD in coord.:     0.8887088 α      energy gain  -0.2583413E-02 Eh

generating ANC from exact Hessian ...
Using Lindh-Hessian (1995)
 Shifting diagonal of input Hessian by    9.8001734788894374E-003
 Lowest  eigenvalues of input Hessian
    0.000000    0.000000    0.000000    0.000000    0.000000    0.000000
    0.010000    0.010090    0.010160    0.010246    0.010290    0.010441
    0.010578    0.010709    0.011052    0.011215    0.011298    0.011605
 Highest eigenvalues
    2.004605    2.010475    2.026995    2.071996    2.111714    2.124915


........................................................................
.............................. CYCLE   43 ..............................
........................................................................

 iter      E             dE          RMSdq      gap      omega  full diag
   1   -123.6421455 -0.123642E+03  0.377E-02    2.17       0.0  T
   2   -123.6421469 -0.136694E-05  0.216E-02    2.17       1.0  T
   3   -123.6421457  0.116400E-05  0.606E-03    2.17       1.9  T
   4   -123.6421471 -0.141827E-05  0.234E-03    2.17       4.9  T
   5   -123.6421472 -0.114388E-06  0.118E-03    2.17       9.7  T
   6   -123.6421473 -0.625836E-07  0.514E-04    2.17      22.2  T
   7   -123.6421473 -0.509202E-08  0.347E-04    2.17      32.8  T
     SCC iter.                  ...        0 min,  1.080 sec
     gradient                   ...        0 min,  0.119 sec
 * total energy  :  -121.8755930 Eh     change       -0.8548729E-04 Eh
   gradient norm :     0.0038403 Eh/α   predicted     0.0000000E+00 (-100.00%)
   displ. norm   :     0.0456469 α      lambda       -0.4772298E-04
   maximum displ.:     0.0206824 α      in ANC's #1, #15, #7, ...

........................................................................
.............................. CYCLE   44 ..............................
........................................................................

 iter      E             dE          RMSdq      gap      omega  full diag
   1   -123.6417798 -0.123642E+03  0.101E-02    2.16       0.0  T
   2   -123.6417800 -0.215286E-06  0.582E-03    2.16       2.0  T
   3   -123.6417799  0.950884E-07  0.184E-03    2.16       6.2  T
   4   -123.6417801 -0.115891E-06  0.733E-04    2.16      15.6  T
   5   -123.6417801 -0.195049E-07  0.364E-04    2.16      31.3  T
     SCC iter.                  ...        0 min,  0.511 sec
     gradient                   ...        0 min,  0.111 sec
 * total energy  :  -121.8756332 Eh     change       -0.4019265E-04 Eh
   gradient norm :     0.0020643 Eh/α   predicted    -0.2439533E-04 ( -39.30%)
   displ. norm   :     0.1372971 α      lambda       -0.9167266E-04
   maximum displ.:     0.0646151 α      in ANC's #1, #15, #7, ...

........................................................................
.............................. CYCLE   45 ..............................
........................................................................

 iter      E             dE          RMSdq      gap      omega  full diag
   1   -123.6411045 -0.123641E+03  0.283E-02    2.15       0.0  T
   2   -123.6411054 -0.949684E-06  0.161E-02    2.15       1.0  T
   3   -123.6411049  0.487706E-06  0.416E-03    2.15       2.7  T
   4   -123.6411056 -0.624785E-06  0.174E-03    2.15       6.5  T
   5   -123.6411056 -0.882870E-07  0.750E-04    2.15      15.2  T
   6   -123.6411057 -0.278622E-07  0.351E-04    2.15      32.5  T
     SCC iter.                  ...        0 min,  0.743 sec
     gradient                   ...        0 min,  0.114 sec
 * total energy  :  -121.8756921 Eh     change       -0.5888842E-04 Eh
   gradient norm :     0.0021409 Eh/α   predicted    -0.4670096E-04 ( -20.70%)
   displ. norm   :     0.1134016 α      lambda       -0.4175515E-04
   maximum displ.:     0.0577426 α      in ANC's #1, #6, #7, ...

........................................................................
.............................. CYCLE   46 ..............................
........................................................................

 iter      E             dE          RMSdq      gap      omega  full diag
   1   -123.6408091 -0.123641E+03  0.225E-02    2.15       0.0  T
   2   -123.6408097 -0.595937E-06  0.126E-02    2.15       1.0  T
   3   -123.6408096  0.100827E-06  0.292E-03    2.15       3.9  T
   4   -123.6408097 -0.164937E-06  0.125E-03    2.15       9.1  T
   5   -123.6408098 -0.480101E-07  0.554E-04    2.15      20.6  T
   6   -123.6408098 -0.112219E-07  0.228E-04    2.15      50.1  T
     SCC iter.                  ...        0 min,  0.866 sec
     gradient                   ...        0 min,  0.118 sec
 * total energy  :  -121.8757217 Eh     change       -0.2965834E-04 Eh
   gradient norm :     0.0028265 Eh/α   predicted    -0.2114684E-04 ( -28.70%)
   displ. norm   :     0.1663469 α      lambda       -0.5374035E-04
   maximum displ.:     0.0852883 α      in ANC's #1, #6, #7, ...

........................................................................
.............................. CYCLE   47 ..............................
........................................................................

 iter      E             dE          RMSdq      gap      omega  full diag
   1   -123.6406990 -0.123641E+03  0.320E-02    2.14       0.0  T
   2   -123.6406996 -0.611603E-06  0.186E-02    2.14       1.0  T
   3   -123.6406988  0.751825E-06  0.394E-03    2.14       2.9  T
   4   -123.6406997 -0.866691E-06  0.155E-03    2.14       7.3  T
   5   -123.6406998 -0.114009E-06  0.584E-04    2.14      19.5  T
   6   -123.6406998 -0.596813E-08  0.320E-04    2.14      35.6  T
     SCC iter.                  ...        0 min,  0.697 sec
     gradient                   ...        0 min,  0.113 sec
 * total energy  :  -121.8757617 Eh     change       -0.3994326E-04 Eh
   gradient norm :     0.0027929 Eh/α   predicted    -0.2763134E-04 ( -30.82%)
   displ. norm   :     0.1925516 α      lambda       -0.5773995E-04
   maximum displ.:     0.1019543 α      in ANC's #1, #6, #3, ...

........................................................................
.............................. CYCLE   48 ..............................
........................................................................

 iter      E             dE          RMSdq      gap      omega  full diag
   1   -123.6408541 -0.123641E+03  0.357E-02    2.14       0.0  T
   2   -123.6408548 -0.725567E-06  0.209E-02    2.14       1.0  T
   3   -123.6408537  0.112418E-05  0.462E-03    2.14       2.5  T
   4   -123.6408550 -0.134291E-05  0.151E-03    2.14       7.5  T
   5   -123.6408551 -0.825960E-07  0.675E-04    2.14      16.9  T
   6   -123.6408551 -0.111087E-07  0.288E-04    2.14      39.6  T
     SCC iter.                  ...        0 min,  0.692 sec
     gradient                   ...        0 min,  0.113 sec
 * total energy  :  -121.8758050 Eh     change       -0.4336615E-04 Eh
   gradient norm :     0.0022029 Eh/α   predicted    -0.2994095E-04 ( -30.96%)
   displ. norm   :     0.1787455 α      lambda       -0.4686137E-04
   maximum displ.:     0.0983446 α      in ANC's #1, #3, #6, ...

........................................................................
.............................. CYCLE   49 ..............................
........................................................................

 iter      E             dE          RMSdq      gap      omega  full diag
   1   -123.6412352 -0.123641E+03  0.320E-02    2.15       0.0  T
   2   -123.6412361 -0.911717E-06  0.190E-02    2.15       1.0  T
   3   -123.6412350  0.116873E-05  0.515E-03    2.15       2.2  T
   4   -123.6412363 -0.136971E-05  0.163E-03    2.15       7.0  T
   5   -123.6412365 -0.112281E-06  0.785E-04    2.15      14.5  T
   6   -123.6412365 -0.161218E-07  0.350E-04    2.15      32.5  T
     SCC iter.                  ...        0 min,  0.647 sec
     gradient                   ...        0 min,  0.119 sec
 * total energy  :  -121.8758395 Eh     change       -0.3452269E-04 Eh
   gradient norm :     0.0018395 Eh/α   predicted    -0.2418006E-04 ( -29.96%)
   displ. norm   :     0.2054941 α      lambda       -0.3082335E-04
   maximum displ.:     0.1207101 α      in ANC's #1, #3, #8, ...

........................................................................
.............................. CYCLE   50 ..............................
........................................................................

 iter      E             dE          RMSdq      gap      omega  full diag
   1   -123.6416853 -0.123642E+03  0.338E-02    2.15       0.0  T
   2   -123.6416865 -0.124056E-05  0.200E-02    2.15       1.0  T
   3   -123.6416851  0.138289E-05  0.581E-03    2.15       2.0  T
   4   -123.6416868 -0.163598E-05  0.194E-03    2.15       5.9  T
   5   -123.6416869 -0.138461E-06  0.973E-04    2.15      11.7  T
   6   -123.6416869 -0.298909E-07  0.408E-04    2.15      28.0  T
     SCC iter.                  ...        0 min,  0.754 sec
     gradient                   ...        0 min,  0.119 sec
 * total energy  :  -121.8758692 Eh     change       -0.2970039E-04 Eh
   gradient norm :     0.0018626 Eh/α   predicted    -0.1571129E-04 ( -47.10%)
   displ. norm   :     0.0981904 α      lambda       -0.1670178E-04
   maximum displ.:     0.0648405 α      in ANC's #1, #3, #7, ...

........................................................................
.............................. CYCLE   51 ..............................
........................................................................

 iter      E             dE          RMSdq      gap      omega  full diag
   1   -123.6417962 -0.123642E+03  0.134E-02    2.15       0.0  T
   2   -123.6417964 -0.144246E-06  0.769E-03    2.15       1.5  T
   3   -123.6417962  0.180034E-06  0.209E-03    2.15       5.5  T
   4   -123.6417964 -0.205780E-06  0.771E-04    2.15      14.8  T
   5   -123.6417964 -0.233184E-07  0.278E-04    2.15      40.9  T
     SCC iter.                  ...        0 min,  0.642 sec
     gradient                   ...        0 min,  0.123 sec
 * total energy  :  -121.8758902 Eh     change       -0.2094588E-04 Eh
   gradient norm :     0.0013649 Eh/α   predicted    -0.8389686E-05 ( -59.95%)
   displ. norm   :     0.1336143 α      lambda       -0.2597117E-04
   maximum displ.:     0.0866895 α      in ANC's #1, #3, #7, ...

........................................................................
.............................. CYCLE   52 ..............................
........................................................................

 iter      E             dE          RMSdq      gap      omega  full diag
   1   -123.6417633 -0.123642E+03  0.210E-02    2.15       0.0  T
   2   -123.6417636 -0.305170E-06  0.117E-02    2.15       1.0  T
   3   -123.6417634  0.150892E-06  0.242E-03    2.15       4.7  T
   4   -123.6417636 -0.159764E-06  0.123E-03    2.15       9.3  T
   5   -123.6417637 -0.697210E-07  0.320E-04    2.15      35.6  T
   6   -123.6417637 -0.431130E-08  0.124E-04    2.15      91.8  T
     SCC iter.                  ...        0 min,  0.814 sec
     gradient                   ...        0 min,  0.122 sec
 * total energy  :  -121.8759175 Eh     change       -0.2727719E-04 Eh
   gradient norm :     0.0014929 Eh/α   predicted    -0.1308922E-04 ( -52.01%)
   displ. norm   :     0.1375722 α      lambda       -0.2093957E-04
   maximum displ.:     0.0935435 α      in ANC's #1, #3, #7, ...

........................................................................
.............................. CYCLE   53 ..............................
........................................................................

 iter      E             dE          RMSdq      gap      omega  full diag
   1   -123.6415413 -0.123642E+03  0.200E-02    2.14       0.0  T
   2   -123.6415418 -0.544712E-06  0.110E-02    2.14       1.0  T
   3   -123.6415416  0.225562E-06  0.340E-03    2.14       3.4  T
   4   -123.6415419 -0.324393E-06  0.139E-03    2.14       8.2  T
   5   -123.6415419 -0.244856E-07  0.596E-04    2.14      19.1  T
   6   -123.6415420 -0.161319E-07  0.239E-04    2.14      47.7  T
     SCC iter.                  ...        0 min,  0.809 sec
     gradient                   ...        0 min,  0.116 sec
 * total energy  :  -121.8759381 Eh     change       -0.2058523E-04 Eh
   gradient norm :     0.0015456 Eh/α   predicted    -0.1056122E-04 ( -48.70%)
   displ. norm   :     0.0969928 α      lambda       -0.1241901E-04
   maximum displ.:     0.0720574 α      in ANC's #1, #3, #8, ...

........................................................................
.............................. CYCLE   54 ..............................
........................................................................

 iter      E             dE          RMSdq      gap      omega  full diag
   1   -123.6414170 -0.123641E+03  0.120E-02    2.14       0.0  T
   2   -123.6414170 -0.795303E-07  0.674E-03    2.14       1.7  T
   3   -123.6414170  0.916723E-07  0.146E-03    2.14       7.8  T
   4   -123.6414171 -0.106353E-06  0.622E-04    2.14      18.3  T
   5   -123.6414171 -0.140458E-07  0.201E-04    2.14      56.7  T
     SCC iter.                  ...        0 min,  0.644 sec
     gradient                   ...        0 min,  0.113 sec
 * total energy  :  -121.8759545 Eh     change       -0.1645035E-04 Eh
   gradient norm :     0.0011157 Eh/α   predicted    -0.6236345E-05 ( -62.09%)
   displ. norm   :     0.0915632 α      lambda       -0.1365749E-04
   maximum displ.:     0.0697339 α      in ANC's #1, #3, #8, ...

........................................................................
.............................. CYCLE   55 ..............................
........................................................................

 iter      E             dE          RMSdq      gap      omega  full diag
   1   -123.6416702 -0.123642E+03  0.127E-02    2.14       0.0  T
   2   -123.6416703 -0.958367E-07  0.724E-03    2.14       1.6  T
   3   -123.6416701  0.171376E-06  0.181E-03    2.14       6.3  T
   4   -123.6416703 -0.203375E-06  0.561E-04    2.14      20.3  T
   5   -123.6416703 -0.518031E-08  0.263E-04    2.14      43.3  T
     SCC iter.                  ...        0 min,  0.698 sec
     gradient                   ...        0 min,  0.113 sec
 * total energy  :  -121.8759721 Eh     change       -0.1758882E-04 Eh
   gradient norm :     0.0005703 Eh/α   predicted    -0.6859044E-05 ( -61.00%)
   displ. norm   :     0.1043603 α      lambda       -0.1269195E-04
   maximum displ.:     0.0796970 α      in ANC's #1, #3, #9, ...

........................................................................
.............................. CYCLE   56 ..............................
........................................................................

 iter      E             dE          RMSdq      gap      omega  full diag
   1   -123.6416376 -0.123642E+03  0.147E-02    2.14       0.0  T
   2   -123.6416377 -0.998292E-07  0.843E-03    2.14       1.4  T
   3   -123.6416375  0.249104E-06  0.205E-03    2.14       5.6  T
   4   -123.6416378 -0.292338E-06  0.559E-04    2.14      20.4  T
   5   -123.6416378 -0.646730E-08  0.211E-04    2.14      53.9  T
     SCC iter.                  ...        0 min,  0.605 sec
     gradient                   ...        0 min,  0.113 sec
 * total energy  :  -121.8759886 Eh     change       -0.1646240E-04 Eh
   gradient norm :     0.0008493 Eh/α   predicted    -0.6379241E-05 ( -61.25%)
   displ. norm   :     0.0954166 α      lambda       -0.9961327E-05
   maximum displ.:     0.0739625 α      in ANC's #1, #3, #9, ...

........................................................................
.............................. CYCLE   57 ..............................
........................................................................

 iter      E             dE          RMSdq      gap      omega  full diag
   1   -123.6417944 -0.123642E+03  0.126E-02    2.14       0.0  T
   2   -123.6417945 -0.865458E-07  0.710E-03    2.15       1.6  T
   3   -123.6417943  0.154295E-06  0.175E-03    2.15       6.5  T
   4   -123.6417945 -0.177410E-06  0.621E-04    2.15      18.4  T
   5   -123.6417945 -0.137613E-07  0.159E-04    2.15      71.5  T
     SCC iter.                  ...        0 min,  0.794 sec
     gradient                   ...        0 min,  0.121 sec
 * total energy  :  -121.8760018 Eh     change       -0.1327592E-04 Eh
   gradient norm :     0.0008959 Eh/α   predicted    -0.5005188E-05 ( -62.30%)
   displ. norm   :     0.0830005 α      lambda       -0.8108480E-05
   maximum displ.:     0.0656621 α      in ANC's #1, #3, #9, ...

........................................................................
.............................. CYCLE   58 ..............................
........................................................................

 iter      E             dE          RMSdq      gap      omega  full diag
[...]
       116                         -0.3549325              -9.6582
       117                         -0.3491036              -9.4996
       118                         -0.3337547              -9.0819
       119                         -0.3283505              -8.9349
       120                         -0.3069168              -8.3516
       121                         -0.3003049              -8.1717
       122                         -0.2869372              -7.8080
       ...                                ...                  ...
       221                          1.0001508              27.2155
      -------------------------------------------------------------
                  HL-Gap            0.0791099 Eh            2.1527 eV
             Fermi-level           -0.4337365 Eh          -11.8026 eV

     #   Z          covCN         q      C6AA      α(0)
     1   6 C        3.912    -0.043    21.287     6.558
     2   7 N        2.683    -0.116    23.530     7.204
     3   6 C        3.062     0.054    26.730     8.478
     4   6 C        2.916    -0.051    29.277     8.873
     5   6 C        2.918    -0.034    28.854     8.809
     6   6 C        2.986     0.010    27.778     8.646
     7   6 C        2.919    -0.032    28.795     8.800
     8   6 C        2.915    -0.023    28.591     8.768
     9   6 C        2.917    -0.023    28.590     8.768
    10   6 C        2.917    -0.034    28.845     8.807
    11   6 C        2.988     0.011    27.765     8.643
    12   6 C        2.978    -0.013    28.336     8.732
    13   6 C        2.981    -0.007    28.198     8.711
    14   6 C        3.333     0.051    24.534     7.852
    15   6 C        2.913    -0.047    29.155     8.854
    16   6 C        2.920    -0.034    28.842     8.807
    17   6 C        2.986     0.013    27.712     8.635
    18   6 C        2.919    -0.030    28.758     8.794
    19   6 C        2.915    -0.021    28.524     8.758
    20   6 C        2.917    -0.021    28.541     8.761
    21   6 C        2.917    -0.032    28.795     8.799
    22   6 C        2.987     0.011    27.759     8.643
    23   7 N        2.684    -0.128    23.791     7.244
    24   6 C        3.758    -0.036    21.263     6.574
    25  15 P        4.710     0.282   148.323    21.877
    26  16 S        1.898    -0.037   142.586    20.098
    27  16 S        2.092    -0.031   142.323    20.079
    28   6 C        2.966     0.037    27.167     8.549
    29   6 C        2.984    -0.029    28.725     8.792
    30   6 C        2.919    -0.016    28.417     8.742
    31   6 C        2.919    -0.017    28.435     8.744
    32   6 C        2.925    -0.020    28.505     8.756
    33   6 C        2.988    -0.027    28.679     8.785
    34   6 C        3.335     0.492    17.225     6.575
    35   9 F        0.791    -0.193    11.164     3.947
    36   9 F        0.792    -0.192    11.149     3.944
    37   9 F        0.791    -0.218    11.418     3.991
    38   7 N        2.680    -0.130    23.820     7.249
    39   6 C        3.836    -0.049    21.421     6.585
    40   6 C        3.938     0.084    19.120     6.214
    41   6 C        3.773    -0.127    22.969     6.829
    42   6 C        3.761    -0.125    22.946     6.829
    43   6 C        3.759    -0.126    22.964     6.832
    44   1 H        0.925     0.073     2.049     2.238
    45   1 H        0.924     0.065     2.139     2.287
    46   1 H        0.925     0.077     2.014     2.219
    47   1 H        0.926     0.050     2.314     2.379
    48   1 H        0.926     0.054     2.271     2.357
    49   1 H        0.926     0.048     2.339     2.391
    50   1 H        0.926     0.051     2.309     2.376
    51   1 H        0.926     0.048     2.350     2.397
    52   1 H        0.926     0.037     2.492     2.469
    53   1 H        0.926     0.039     2.461     2.453
    54   1 H        0.926     0.054     2.265     2.353
    55   1 H        0.926     0.050     2.317     2.381
    56   1 H        0.926     0.054     2.271     2.356
    57   1 H        0.926     0.051     2.307     2.375
    58   1 H        0.926     0.041     2.434     2.440
    59   1 H        0.924     0.056     2.241     2.341
    60   1 H        0.925     0.062     2.174     2.306
    61   1 H        0.924     0.065     2.145     2.290
    62   1 H        0.926     0.066     2.126     2.280
    63   1 H        0.926     0.068     2.102     2.267
    64   1 H        0.926     0.076     2.021     2.223
    65   1 H        0.926     0.083     1.948     2.183
    66   1 H        0.925     0.070     2.087     2.259
    67   1 H        0.924     0.062     2.171     2.304
    68   1 H        0.925     0.071     2.070     2.250
    69   1 H        0.925     0.055     2.255     2.348
    70   1 H        0.925     0.075     2.029     2.228
    71   1 H        0.925     0.064     2.152     2.294
    72   1 H        0.925     0.052     2.297     2.370
    73   1 H        0.925     0.068     2.104     2.268
    74   1 H        0.925     0.059     2.216     2.328
    75   1 H        0.925     0.051     2.309     2.376
    76   1 H        0.925     0.051     2.307     2.375
    77   1 H        0.925     0.069     2.096     2.264

 Mol. C6AA /au·bohr⁶  :      81437.009970
 Mol. C8AA /au·bohr⁸  :    2191203.766156
 Mol. α(0) /au        :        453.960592


Wiberg/Mayer (AO) data.
largest (>0.10) Wiberg bond orders for each atom

 ---------------------------------------------------------------------------
     #   Z sym  total        # sym  WBO       # sym  WBO       # sym  WBO
 ---------------------------------------------------------------------------
     1   6 C    3.958 --    46 H    0.977    45 H    0.970     2 N    0.969
                            44 H    0.962
     2   7 N    3.440 --    25 P    1.208     3 C    0.996     1 C    0.969
     3   6 C    3.949 --    12 C    1.447     4 C    1.282     2 N    0.996
     4   6 C    3.987 --     5 C    1.555     3 C    1.282    47 H    0.962
     5   6 C    3.985 --     4 C    1.555     6 C    1.272    48 H    0.966
                            12 C    0.106
     6   6 C    3.988 --     7 C    1.281     5 C    1.272    11 C    1.253
     7   6 C    3.988 --     8 C    1.554     6 C    1.281    49 H    0.967
                            10 C    0.117
     8   6 C    3.985 --     7 C    1.554     9 C    1.323    50 H    0.969
     9   6 C    3.990 --    10 C    1.553     8 C    1.323    51 H    0.970
    10   6 C    3.989 --     9 C    1.553    11 C    1.284    52 H    0.965
                             7 C    0.117
    11   6 C    3.987 --    10 C    1.284     6 C    1.253    12 C    1.236
    12   6 C    3.985 --     3 C    1.447    11 C    1.236    13 C    1.029
                             5 C    0.106
    13   6 C    3.987 --    14 C    1.452    22 C    1.234    12 C    1.029
                            16 C    0.105
    14   6 C    3.950 --    13 C    1.452    15 C    1.288    23 N    0.948
    15   6 C    3.988 --    16 C    1.557    14 C    1.288    53 H    0.961
    16   6 C    3.985 --    15 C    1.557    17 C    1.273    54 H    0.966
                            13 C    0.105
    17   6 C    3.988 --    18 C    1.283    16 C    1.273    22 C    1.252
    18   6 C    3.988 --    19 C    1.553    17 C    1.283    55 H    0.967
                            21 C    0.117
    19   6 C    3.985 --    18 C    1.553    20 C    1.324    56 H    0.969
    20   6 C    3.989 --    21 C    1.551    19 C    1.324    57 H    0.969
    21   6 C    3.988 --    20 C    1.551    22 C    1.286    58 H    0.965
                            18 C    0.117
    22   6 C    3.987 --    21 C    1.286    17 C    1.252    13 C    1.234
    23   7 N    3.396 --    25 P    1.213    24 C    0.976    14 C    0.948
    24   6 C    3.960 --    59 H    0.977    23 N    0.976    61 H    0.975
                            60 H    0.968
    25  15 P    5.139 --    38 N    1.257    23 N    1.213     2 N    1.208
                            26 S    0.968
    26  16 S    2.475 --    27 S    1.164    25 P    0.968
    27  16 S    2.372 --    26 S    1.164    28 C    0.989
    28   6 C    3.965 --    29 C    1.406    33 C    1.380    27 S    0.989
                            31 C    0.103
    29   6 C    3.986 --    30 C    1.439    28 C    1.406    62 H    0.959
                            32 C    0.105
    30   6 C    3.988 --    29 C    1.439    31 C    1.435    63 H    0.966
                            33 C    0.105
    31   6 C    3.979 --    32 C    1.436    30 C    1.435    64 H    0.966
                            28 C    0.103
    32   6 C    3.985 --    31 C    1.436    33 C    1.415    65 H    0.962
                            29 C    0.105
    33   6 C    3.975 --    32 C    1.415    28 C    1.380    34 C    0.948
                            30 C    0.105
    34   6 C    3.831 --    36 F    0.964    35 F    0.958    33 C    0.948
                            37 F    0.924
    35   9 F    1.090 --    34 C    0.958
    36   9 F    1.090 --    34 C    0.964
    37   9 F    1.061 --    34 C    0.924
    38   7 N    3.407 --    25 P    1.257    39 C    0.970    40 C    0.920
    39   6 C    3.956 --    67 H    0.976    68 H    0.973    38 N    0.970
                            66 H    0.964
    40   6 C    3.955 --    41 C    0.998    43 C    0.996    42 C    0.994
                            38 N    0.920
    41   6 C    3.991 --    40 C    0.998    70 H    0.975    69 H    0.973
                            71 H    0.943
    42   6 C    3.987 --    40 C    0.994    72 H    0.983    74 H    0.982
                            73 H    0.978
    43   6 C    3.987 --    40 C    0.996    75 H    0.982    77 H    0.979
                            76 H    0.972
    44   1 H    0.994 --     1 C    0.962
    45   1 H    0.995 --     1 C    0.970
    46   1 H    0.994 --     1 C    0.977
    47   1 H    0.996 --     4 C    0.962
    48   1 H    0.996 --     5 C    0.966
    49   1 H    0.997 --     7 C    0.967
    50   1 H    0.997 --     8 C    0.969
    51   1 H    0.997 --     9 C    0.970
    52   1 H    0.998 --    10 C    0.965
    53   1 H    0.997 --    15 C    0.961
    54   1 H    0.996 --    16 C    0.966
    55   1 H    0.997 --    18 C    0.967
    56   1 H    0.996 --    19 C    0.969
    57   1 H    0.997 --    20 C    0.969
    58   1 H    0.998 --    21 C    0.965
    59   1 H    0.996 --    24 C    0.977
    60   1 H    0.996 --    24 C    0.968
    61   1 H    0.995 --    24 C    0.975
    62   1 H    0.995 --    29 C    0.959
    63   1 H    0.994 --    30 C    0.966
    64   1 H    0.993 --    31 C    0.966
    65   1 H    0.993 --    32 C    0.962
    66   1 H    0.995 --    39 C    0.964
    67   1 H    0.996 --    39 C    0.976
    68   1 H    0.994 --    39 C    0.973
    69   1 H    0.997 --    41 C    0.973
    70   1 H    0.993 --    41 C    0.975
    71   1 H    0.996 --    41 C    0.943
    72   1 H    0.997 --    42 C    0.983
    73   1 H    0.994 --    42 C    0.978
    74   1 H    0.996 --    42 C    0.982
    75   1 H    0.997 --    43 C    0.982
    76   1 H    0.997 --    43 C    0.972
    77   1 H    0.995 --    43 C    0.979
 ---------------------------------------------------------------------------

Topologies differ in total number of bonds
Writing topology from bond orders to xtbtopo.mol

molecular dipole:
                 x           y           z       tot (Debye)
 q only:        1.102       0.682      -0.343
   full:        0.886       0.458      -0.353       2.689
molecular quadrupole (traceless):
                xx          xy          yy          xz          yz          zz
 q only:      -20.104      -4.097      32.906       6.203      -5.837     -12.802
  q+dip:      -19.146      -5.366      29.507       6.086      -8.163     -10.361
   full:      -20.114      -2.357      31.915       5.945      -6.988     -11.801

           -------------------------------------------------
          |                Geometry Summary                 |
           -------------------------------------------------

      molecular mass/u    :      636.7536620
   center of mass at/Å    :       -0.4457783      -0.3231378       0.2910595
  moments of inertia/u·Å² :        0.4842832E+04   0.7107429E+04   0.9658323E+04
rotational constants/cm⁻¹ :        0.3480945E-02   0.2371833E-02   0.1745400E-02

 * 79 selected distances

     #   Z          #   Z                                           value/Å
     1   6 C        2   7 N                                       1.4606986
     2   7 N        3   6 C                                       1.4227237
     3   6 C        4   6 C                                       1.4088725
     4   6 C        5   6 C                                       1.3649700
     5   6 C        6   6 C                                       1.4101071
     6   6 C        7   6 C                                       1.4100324
     7   6 C        8   6 C                                       1.3665722
     8   6 C        9   6 C                                       1.4030615
     9   6 C       10   6 C                                       1.3675042
     6   6 C       11   6 C                                       1.4194109
    10   6 C       11   6 C                                       1.4116964
     3   6 C       12   6 C                                       1.3810803
    11   6 C       12   6 C                                       1.4242546
    13   6 C       14   6 C                                       1.3761966
    14   6 C       15   6 C                                       1.4044714
    15   6 C       16   6 C                                       1.3648949
    16   6 C       17   6 C                                       1.4115200
    17   6 C       18   6 C                                       1.4101047
    18   6 C       19   6 C                                       1.3669294
    19   6 C       20   6 C                                       1.4028506
    20   6 C       21   6 C                                       1.3675815
    13   6 C       22   6 C                                       1.4235089
    17   6 C       22   6 C                                       1.4209785
    21   6 C       22   6 C                                       1.4108731
    14   6 C       23   7 N                                       1.4376048
    23   7 N       24   6 C                                       1.4510127
     2   7 N       25  15 P                                       1.6594566
    23   7 N       25  15 P                                       1.6546678
    25  15 P       26  16 S                                       2.1431265 (max)
    26  16 S       27  16 S                                       2.0433273
    28   6 C       29   6 C                                       1.3885279
    29   6 C       30   6 C                                       1.3831353
    30   6 C       31   6 C                                       1.3847846
    31   6 C       32   6 C                                       1.3841010
    28   6 C       33   6 C                                       1.3946347
    32   6 C       33   6 C                                       1.3907520
    34   6 C       35   9 F                                       1.3360650
    34   6 C       36   9 F                                       1.3320447
    34   6 C       37   9 F                                       1.3566644
    25  15 P       38   7 N                                       1.6537516
    38   7 N       39   6 C                                       1.4599667
    38   7 N       40   6 C                                       1.4840570
    40   6 C       41   6 C                                       1.5262829
    40   6 C       42   6 C                                       1.5304393
    40   6 C       43   6 C                                       1.5283978
     1   6 C       44   1 H                                       1.0897731
     1   6 C       45   1 H                                       1.0928523
     1   6 C       46   1 H                                       1.0895665
     4   6 C       47   1 H                                       1.0769826 (min)
     5   6 C       48   1 H                                       1.0793099
     7   6 C       49   1 H                                       1.0797707
     8   6 C       50   1 H                                       1.0789522
     9   6 C       51   1 H                                       1.0792332
    10   6 C       52   1 H                                       1.0791316
    15   6 C       53   1 H                                       1.0795639
    16   6 C       54   1 H                                       1.0794694
    18   6 C       55   1 H                                       1.0797316
    19   6 C       56   1 H                                       1.0789146
    20   6 C       57   1 H                                       1.0790928
    21   6 C       58   1 H                                       1.0791033
    24   6 C       59   1 H                                       1.0924290
    24   6 C       60   1 H                                       1.0884030
    24   6 C       61   1 H                                       1.0905475
    29   6 C       62   1 H                                       1.0781568
    30   6 C       63   1 H                                       1.0788445
    31   6 C       64   1 H                                       1.0781668
    32   6 C       65   1 H                                       1.0789233
    39   6 C       66   1 H                                       1.0870221
    39   6 C       67   1 H                                       1.0911169
    39   6 C       68   1 H                                       1.0893472
    41   6 C       69   1 H                                       1.0870641
    41   6 C       70   1 H                                       1.0868553
    41   6 C       71   1 H                                       1.0883848
    42   6 C       72   1 H                                       1.0871458
    42   6 C       73   1 H                                       1.0863449
    42   6 C       74   1 H                                       1.0853490
    43   6 C       75   1 H                                       1.0874431
    43   6 C       76   1 H                                       1.0885756
    43   6 C       77   1 H                                       1.0859046

 * 7 distinct bonds (by element types)

   Z      Z             #   av. dist./Å        max./Å        min./Å
   1 H    6 C          34     1.0840433     1.0928523     1.0769826
   6 C    6 C          31     1.4076944     1.5304393     1.3648949
   6 C    7 N           6     1.4526772     1.4840570     1.4227237
   6 C    9 F           3     1.3415914     1.3566644     1.3320447
   7 N   15 P           3     1.6559587     1.6594566     1.6537516
  15 P   16 S           1     2.1431265     2.1431265     2.1431265
  16 S   16 S           1     2.0433273     2.0433273     2.0433273


optimized geometry written to: xtbopt.xyz


           -------------------------------------------------
          | TOTAL ENERGY             -121.876158837485 Eh   |
          | GRADIENT NORM               0.000025598185 Eh/α |
          | HOMO-LUMO GAP               2.152689660580 eV   |
           -------------------------------------------------

------------------------------------------------------------------------
 * finished run on 2024/12/16 at 19:28:11.875     
------------------------------------------------------------------------
 total:
 * wall-time:     0 d,  0 h,  2 min,  9.639 sec
 *  cpu-time:     0 d,  0 h, 17 min,  4.790 sec
 * ratio c/w:     7.905 speedup
 SCF:
 * wall-time:     0 d,  0 h,  0 min,  2.268 sec
 *  cpu-time:     0 d,  0 h,  0 min, 18.027 sec
 * ratio c/w:     7.948 speedup
 ANC optimizer:
 * wall-time:     0 d,  0 h,  2 min,  7.200 sec
 *  cpu-time:     0 d,  0 h, 16 min, 45.443 sec
 * ratio c/w:     7.904 speedup

