98
 energy: -131.324965463567 gnorm: 0.138513028056 xtb: 6.7.1 (edcfbbe)
C           -6.25493400000000        0.98714900000000       -2.62424100000000
C           -5.06929900000000        1.20278900000000       -1.67209600000000
C           -5.40403800000000        2.28073900000000       -0.63366200000000
C           -4.63449300000000       -0.10546300000000       -1.00460000000000
C           -5.59192800000000       -0.77906000000000       -0.21823300000000
C           -5.32249700000000       -2.01522300000000        0.35123100000000
C           -4.09190500000000       -2.61963000000000        0.13751800000000
C           -3.08179200000000       -1.98418600000000       -0.61059700000000
C           -1.76683700000000       -2.73445900000000       -0.85125700000000
C           -1.35237000000000       -3.69706400000000        0.27210300000000
C           -1.83790100000000       -3.50719000000000       -2.17416100000000
C           -3.34411100000000       -0.69322200000000       -1.16458200000000
S           -2.05238900000000        0.13149800000000       -2.13018900000000
S           -1.64245800000000        1.84612700000000       -1.07834900000000
P            0.13418900000000        1.46309200000000        0.00449900000000
N            0.67473500000000        2.67810800000000        1.03951100000000
C            2.10476300000000        2.62903100000000        1.46409300000000
C            3.04466000000000        3.67816500000000        0.85221600000000
C            2.33203700000000        2.51549900000000        2.97989900000000
C           -0.13499000000000        3.87087500000000        1.44424900000000
C           -0.27892000000000        4.82737600000000        0.24126100000000
C           -1.53098200000000        3.44523400000000        1.96182200000000
C            0.38800800000000        4.75438200000000        2.61350800000000
N            0.06893800000000        0.05812800000000        0.88032000000000
C           -1.09168400000000       -0.02220700000000        1.76362400000000
C            1.24945600000000       -0.57216700000000        1.37708400000000
C            1.45212900000000       -0.73823300000000        2.76194500000000
C            2.64068900000000       -1.24069500000000        3.28339900000000
C            3.69854300000000       -1.55754700000000        2.44025200000000
C            4.92475100000000       -1.97516500000000        2.98935000000000
C            6.01422200000000       -2.26813600000000        2.17401300000000
C            5.89093000000000       -2.13458800000000        0.80067400000000
C            4.67366400000000       -1.72311800000000        0.24925100000000
C            3.52655100000000       -1.44807800000000        1.04004600000000
C            2.24954300000000       -1.04754500000000        0.48515400000000
C            1.95195200000000       -1.20790500000000       -0.90788800000000
C            1.53160000000000       -0.10117300000000       -1.69807200000000
C            1.36898300000000       -0.28321200000000       -3.08740100000000
C            1.57271800000000       -1.51056600000000       -3.70747000000000
C            1.92577000000000       -2.62340400000000       -2.95972800000000
C            2.08175600000000       -3.86040400000000       -3.61166100000000
C            2.38373800000000       -5.01589400000000       -2.89971600000000
C            2.51942800000000       -4.94525900000000       -1.52471400000000
C            2.37161300000000       -3.71577800000000       -0.87412600000000
C            2.09920100000000       -2.49996800000000       -1.56034500000000
N            1.34144500000000        1.18306100000000       -1.09970000000000
C            1.54127600000000        2.30692700000000       -2.01704800000000
H           -7.16346500000000        0.68117300000000       -2.09517400000000
H           -6.48531600000000        1.91302600000000       -3.16380200000000
H           -6.02105000000000        0.21575100000000       -3.36614000000000
H           -4.27103100000000        1.60462900000000       -2.29722900000000
H           -4.58338500000000        2.41912800000000        0.08012400000000
H           -5.58703900000000        3.24301900000000       -1.12605300000000
H           -6.30396500000000        2.03121300000000       -0.05949900000000
H           -6.57869700000000       -0.34844400000000       -0.05963500000000
H           -6.08327000000000       -2.52251100000000        0.94010200000000
H           -3.93901700000000       -3.60954100000000        0.55824900000000
H           -0.95356400000000       -2.00787000000000       -0.91382600000000
H           -0.31981300000000       -4.02859700000000        0.12513800000000
H           -1.97310600000000       -4.60073300000000        0.28803700000000
H           -1.41312700000000       -3.22075200000000        1.25557900000000
H           -0.90556100000000       -4.05056900000000       -2.35786200000000
H           -2.00711400000000       -2.83941900000000       -3.02494900000000
H           -2.65361000000000       -4.23864000000000       -2.16489400000000
H            2.51438600000000        1.69224900000000        1.07924800000000
H            4.05320800000000        3.56786000000000        1.27273200000000
H            2.73569700000000        4.70721600000000        1.02873000000000
H            3.14768100000000        3.54748300000000       -0.22566900000000
H            3.23135100000000        1.91861800000000        3.17828500000000
H            1.49555200000000        2.01966100000000        3.48107000000000
H            2.50230700000000        3.48537700000000        3.45646700000000
H           -0.74194200000000        4.36252600000000       -0.62824300000000
H            0.69470500000000        5.21613100000000       -0.07606500000000
H           -0.90398500000000        5.69076900000000        0.49858100000000
H           -2.10560600000000        2.83399000000000        1.27490500000000
H           -1.44399300000000        2.88500300000000        2.89959300000000
H           -2.15455700000000        4.32296300000000        2.16898100000000
H            0.41446200000000        4.20354100000000        3.56039300000000
H            1.36609100000000        5.19842700000000        2.42698700000000
H           -0.28784900000000        5.60561100000000        2.78446700000000
H           -1.24497400000000       -1.04131500000000        2.13466900000000
H           -2.01368100000000        0.24681300000000        1.24634100000000
H           -0.99964800000000        0.65389600000000        2.61857100000000
H            0.70013800000000       -0.43033900000000        3.48169600000000
H            2.74183700000000       -1.32484700000000        4.36285600000000
H            5.04222900000000       -2.06539600000000        4.06698200000000
H            6.95634000000000       -2.58581000000000        2.61096000000000
H            6.73551100000000       -2.34136200000000        0.14993200000000
H            4.63091000000000       -1.60258400000000       -0.83305800000000
H            1.04753700000000        0.52952400000000       -3.73103600000000
H            1.41696000000000       -1.58519100000000       -4.78154800000000
H            1.95442000000000       -3.93223800000000       -4.69005000000000
H            2.49891700000000       -5.96447000000000       -3.41649200000000
H            2.73720500000000       -5.83866700000000       -0.94707500000000
H            2.45502600000000       -3.72536400000000        0.21110200000000
H            2.52421600000000        2.24556700000000       -2.49996900000000
H            1.50588600000000        3.26585900000000       -1.49609200000000
H            0.76203300000000        2.36599900000000       -2.78360100000000
98
 energy: -131.348317037034 gnorm: 0.058645741996 xtb: 6.7.1 (edcfbbe)
C           -6.24462685756923        0.97838119399836       -2.61598377210014
C           -5.05435268416964        1.19652905926341       -1.66967603049467
C           -5.39860975517511        2.27206991606193       -0.63171124996266
C           -4.63484712691965       -0.11206486899790       -1.00979483182554
C           -5.58210395734359       -0.77704113129064       -0.23086943185380
C           -5.31179067202515       -2.00788996748242        0.33837720680200
C           -4.08566451184986       -2.61460075716168        0.12814621622240
C           -3.08233298697872       -1.98684571204678       -0.60663373821695
C           -1.76665675741869       -2.71951854741179       -0.85236742503028
C           -1.36319240558325       -3.68721628502085        0.26884393281351
C           -1.84175757453503       -3.49488854803131       -2.17348038312007
C           -3.36335143629329       -0.71092934255212       -1.14614961641803
S           -2.06156942725056        0.11511733590475       -2.08155672728524
S           -1.65094367648754        1.83311357021374       -1.01025632118338
P            0.18679897093512        1.46557206732726        0.03783882612834
N            0.68855502420856        2.70879592876597        1.06345574413435
C            2.11881839693326        2.61752382458174        1.46069535364008
C            3.03898939302824        3.68160179229304        0.85074268279585
C            2.32938471324207        2.51571738446066        2.97829529802642
C           -0.15031736885850        3.89267731448990        1.44098699415389
C           -0.28816565440121        4.82798814652869        0.23191406364497
C           -1.53159908185171        3.43579389823365        1.94620268209908
C            0.39973821936505        4.74239650564136        2.60768751316268
N            0.07821789057165        0.03687538876653        0.88829762842553
C           -1.09149406027211       -0.02950160784002        1.76357838944581
C            1.27033998682885       -0.57917499107934        1.38149894598632
C            1.46213695595148       -0.71908121619544        2.76593813078044
C            2.62793567894568       -1.22882636439178        3.28391755584742
C            3.69725046863066       -1.55925156280854        2.44263214677549
C            4.92801983280001       -1.97597873169217        2.98530636079143
C            5.99763121826337       -2.26436899660891        2.17141918154828
C            5.86281225330403       -2.12549000776773        0.79046457132650
C            4.65919950511032       -1.73175289812390        0.23772447837410
C            3.52349470784651       -1.46150095128016        1.03549144420504
C            2.25115272274751       -1.05651839873057        0.49689656448105
C            1.95895843046485       -1.20796104395245       -0.92353609082070
C            1.53230069623464       -0.11865919111624       -1.69870646613827
C            1.34954280300938       -0.28445537943495       -3.08367235052780
C            1.56060523600031       -1.49130019131526       -3.70282388947192
C            1.92048844912229       -2.62084046823827       -2.96038838055438
C            2.08057345167914       -3.86223753157622       -3.60673303528099
C            2.38278182213376       -4.99769237530295       -2.89466526807055
C            2.51520226334897       -4.91396607351305       -1.50976444939498
C            2.37257104451876       -3.70172290244835       -0.85983849033045
C            2.09947830202676       -2.49943420966600       -1.55570294005660
N            1.36777360868651        1.17755864995387       -1.10191387256358
C            1.54327392851895        2.30664022894371       -2.01715668660831
H           -7.14718966913636        0.67757146238184       -2.08535087604404
H           -6.46883786925997        1.90392861262762       -3.14781995619853
H           -6.01508646473325        0.21282153101377       -3.35701581999145
H           -4.23758265407772        1.58431858182025       -2.28519823086028
H           -4.58083372146664        2.41263722258320        0.07618548273267
H           -5.58093272291899        3.22564920442775       -1.12820880282582
H           -6.29542603981067        2.01813389894373       -0.06672424333856
H           -6.55863730195241       -0.33892458274088       -0.07584521037127
H           -6.06819049025696       -2.50969104904560        0.92865618889046
H           -3.92232358368493       -3.59658329523469        0.54704362027165
H           -0.96055772065525       -1.98205458823454       -0.93334334586288
H           -0.33295582676412       -4.00988603032565        0.11291359911411
H           -1.98001350252915       -4.58601578732424        0.28038487611674
H           -1.42134333046082       -3.21614670197339        1.24967903217329
H           -0.90944186079995       -4.03308394705444       -2.34829451127245
H           -2.01031025053760       -2.82680075097144       -3.01821495446863
H           -2.65260737121380       -4.22423663901097       -2.15201438584196
H            2.47753540767877        1.66430842597294        1.05351063477782
H            4.03415360782252        3.55697426143444        1.28021750256006
H            2.72597014243945        4.70430577095261        1.04145158080388
H            3.13961786005634        3.55029435824223       -0.22359877787110
H            3.21895820192409        1.91311489803822        3.16598938374014
H            1.49244554820827        2.02441135785162        3.47020350690021
H            2.49676310227916        3.48274099342972        3.44691597655273
H           -0.74855832492705        4.33474517333042       -0.62374319995389
H            0.68798798607380        5.20767217605567       -0.07159543267660
H           -0.90825773835832        5.68417927018404        0.49463315108774
H           -2.08355031151265        2.82256026715151        1.23865827686992
H           -1.43271998840895        2.88352055836906        2.88248251272318
H           -2.14313119126787        4.31385598004959        2.15510290153943
H            0.42225449862261        4.19209979044152        3.54578746522943
H            1.37440717382251        5.17973878118798        2.41796688471695
H           -0.28825049211541        5.57787478338458        2.75629829530375
H           -1.23005274027996       -1.04895654804503        2.12536232150544
H           -1.99940423083185        0.24550320281166        1.22147052130810
H           -1.00446727313694        0.64243389034477        2.62226369567939
H            0.69392809364173       -0.43047475246126        3.46846752638601
H            2.72724796511129       -1.33100503837668        4.35582955964198
H            5.03746148234894       -2.06061104564527        4.05832378643392
H            6.93843025808050       -2.58191209605060        2.60218656598335
H            6.70701058558136       -2.32789195310284        0.14483365323904
H            4.60746084679411       -1.61048168980326       -0.83679254654081
H            1.04486275003668        0.53846386321915       -3.71302808817317
H            1.42119281401121       -1.56711445596262       -4.77260307521825
H            1.95270818738548       -3.92531909749443       -4.67934781632083
H            2.49902653931676       -5.94576141744043       -3.40446968211684
H            2.72943790948501       -5.80606857767497       -0.93613336384307
H            2.46446511349395       -3.69935603676610        0.21848951980570
H            2.51817519252166        2.23111170949535       -2.50221822714204
H            1.50437593949243        3.24956292667675       -1.46889901157087
H            0.76413548539482        2.36020517596689       -2.78381692788600
98
 energy: -131.355793248108 gnorm: 0.014106629525 xtb: 6.7.1 (edcfbbe)
C           -6.22079399471518        0.96882121073001       -2.60998125215362
C           -5.02984526846534        1.18890443970387       -1.66649236732084
C           -5.38229224171513        2.26152367207047       -0.62968648049349
C           -4.62350032826700       -0.11241994934689       -1.00425698539843
C           -5.57334086704848       -0.77725809755380       -0.23975597375543
C           -5.30536521623345       -2.00596940751949        0.32865880359908
C           -4.08104650987038       -2.61351599369761        0.12289739443555
C           -3.07880274937507       -1.98452377960827       -0.60005757033297
C           -1.76547132227745       -2.70027740669052       -0.85096027768384
C           -1.36496608765379       -3.66929764835019        0.26545496909605
C           -1.84580718326639       -3.47375922052907       -2.17321523491594
C           -3.36219417690607       -0.71336330410830       -1.12330342029039
S           -2.05432305266693        0.10782566618571       -2.04589531829065
S           -1.64264953276672        1.80880041498578       -0.95384485543972
P            0.21749291253488        1.45987984311304        0.06447153682168
N            0.69174408552207        2.72114085618586        1.07653468659371
C            2.12161734745059        2.60851342745137        1.45870521944644
C            3.04348504649497        3.67064899796588        0.85422659426346
C            2.33763840514371        2.50231409301260        2.97273847474412
C           -0.15713428370309        3.90226225039749        1.43550684235345
C           -0.29761600484059        4.82141872939565        0.22167346582559
C           -1.52893378464933        3.43110954663816        1.92981196842985
C            0.39677640761122        4.74081613799341        2.59574233653547
N            0.07600117487940        0.00857484890480        0.88736972030685
C           -1.09473363600188       -0.05033368125016        1.76107860112433
C            1.28094642868631       -0.58571540864901        1.38428603092949
C            1.46418025210922       -0.70731808145008        2.77214496619032
C            2.61748461655245       -1.21954139362979        3.28667605750463
C            3.69115488160593       -1.55906556947922        2.44366872535978
C            4.92652718123013       -1.97688947491510        2.97780185778755
C            5.98056016017741       -2.26215236485568        2.15925881165417
C            5.83259727446650       -2.12293077285536        0.77208754200873
C            4.63715361210720       -1.74059696348701        0.22330901018956
C            3.51394945515003       -1.46709749901971        1.03391182794599
C            2.24570548966052       -1.05948990063842        0.50838606547265
C            1.95552392408048       -1.20204134426357       -0.93195902524586
C            1.53027542364199       -0.12748799773373       -1.69432049921677
C            1.33546572984667       -0.27674611943312       -3.07963095887807
C            1.54687954262188       -1.47226655947612       -3.69658417333600
C            1.91120386648792       -2.61137808301649       -2.95682512472856
C            2.07660144684155       -3.85706724390769       -3.59630442771729
C            2.37992261374780       -4.97732046950608       -2.87857405854706
C            2.51253537346755       -4.88108914791910       -1.48650068122284
C            2.37459943448952       -3.67960259142104       -0.84134429052962
C            2.09355714660433       -2.49021453818999       -1.55029367646855
N            1.38000000446841        1.17502239721349       -1.10081152909282
C            1.54317949099691        2.30838894656331       -2.01283885590455
H           -7.11429323891108        0.67056211951026       -2.06849005841337
H           -6.44447363655546        1.89486980916059       -3.13516490803004
H           -5.99633553331224        0.20335334758041       -3.34835298402097
H           -4.19847823433196        1.56534925498476       -2.27227506115957
H           -4.56776932144667        2.40584224904041        0.07653339078470
H           -5.56968270997255        3.20742758737754       -1.13187471570625
H           -6.27737254255974        1.99539160450897       -0.07408110869148
H           -6.54460264083413       -0.33291071037348       -0.09404225598075
H           -6.05964326428617       -2.50340799058327        0.91885957837997
H           -3.90939154918719       -3.59198813895682        0.53816592254465
H           -0.96686955666305       -1.95420793434160       -0.94396755898077
H           -0.33671771179805       -3.98829250623891        0.10453445723133
H           -1.98580607928591       -4.56105450646710        0.26425509871103
H           -1.42857734633701       -3.20378832243723        1.24588229857514
H           -0.91281856354215       -4.00714400068115       -2.34398574930275
H           -2.01720262256385       -2.80326794832636       -3.01197513813543
H           -2.65442611449979       -4.20088257525163       -2.14056448140649
H            2.44248733977666        1.64601352211988        1.03497925325132
H            4.03211696676748        3.54504811111029        1.28810658613914
H            2.71766910376045        4.68459856059018        1.05764025918462
H            3.13933024193901        3.54857805935059       -0.21920486856210
H            3.22040061475339        1.89547906514394        3.15793514756547
H            1.49420922207848        2.01893546160736        3.45507801968086
H            2.50191015858698        3.47007179601893        3.43148099621609
H           -0.75753210972140        4.30159692044333       -0.61769298366249
H            0.67646351960111        5.19648581451028       -0.08194992748995
H           -0.91951317540438        5.67387053548402        0.47685901503573
H           -2.05592966351981        2.82018554466909        1.20295792829464
H           -1.42418770550270        2.87344931650673        2.85803643546515
H           -2.14402962487117        4.30221146194914        2.13837935705917
H            0.42143976225360        4.18092012016717        3.52273626037622
H            1.37381245375918        5.16249821309926        2.40151800152973
H           -0.28767342895977        5.57326857423115        2.74209156118224
H           -1.21989979495991       -1.07047870539000        2.11621622750675
H           -1.98732338400642        0.22551998815184        1.19669167136393
H           -1.01768908537371        0.62251377574542        2.61954224071290
H            0.68562169262294       -0.41725855043384        3.45739101970471
H            2.72444348397802       -1.33468962855568        4.35375421289331
H            5.02877058627363       -2.05446703778392        4.04961087420152
H            6.92424316295932       -2.57702027020049        2.57884389400225
H            6.67901337723835       -2.31562968725586        0.13037610224658
H            4.56673905316626       -1.62581139540787       -0.84736454821828
H            1.02566072993812        0.55349771090238       -3.69060413048510
H            1.41772685428922       -1.55595425098060       -4.76403470391546
H            1.94808661315531       -3.91145510208566       -4.66670164873397
H            2.50147700768766       -5.92768919264662       -3.37692502093863
H            2.72325855388660       -5.77311988856700       -0.91575142763735
H            2.47331741135073       -3.65925101368601        0.23308371501682
H            2.51325803052171        2.22788802990474       -2.50158883372647
H            1.49893586505644        3.23546916696304       -1.44189562257208
H            0.76190434475010        2.35964216980987       -2.77601426074254
98
 energy: -131.358259844276 gnorm: 0.012091497616 xtb: 6.7.1 (edcfbbe)
C           -6.18855421583357        0.96240469182850       -2.60685919054564
C           -5.00027431606560        1.18607425025809       -1.66321095198324
C           -5.35875148013627        2.25606068435313       -0.62717067305250
C           -4.60733213952187       -0.11301134461684       -0.99985760267597
C           -5.56436561498920       -0.77922086058681       -0.24364483247005
C           -5.30043886261392       -2.00836992804775        0.32473546936184
C           -4.07485889091872       -2.61511886226776        0.12509557008614
C           -3.06872689440974       -1.98045797607554       -0.58948330265834
C           -1.75621775452254       -2.68345446283649       -0.84661230635211
C           -1.35546750776859       -3.65473267153199        0.26410153769445
C           -1.84488150953381       -3.44863065469668       -2.17312690923975
C           -3.34690641232748       -0.71058556539194       -1.11131670724056
S           -2.02877366709686        0.11477403973126       -2.01607339557859
S           -1.64442687665459        1.81836625097179       -0.92276668276529
P            0.21650666968452        1.45508861695310        0.07770767244507
N            0.68975468175092        2.71828485949038        1.07792090506593
C            2.12037938010864        2.59430733276219        1.45499215156999
C            3.04639462914350        3.65553901138836        0.85689968492714
C            2.34015838536420        2.48386817414509        2.96725453501488
C           -0.15815247025756        3.90031662202020        1.42703822577791
C           -0.30475536520861        4.80591700018782        0.20402539409150
C           -1.52858795204681        3.42260145412225        1.91254976398681
C            0.39939921961593        4.73716342726817        2.58363079468940
N            0.06518715477317       -0.00704462617225        0.88500486078991
C           -1.10614579224789       -0.07643876450504        1.75504278056577
C            1.27634936019813       -0.58445600629238        1.38987665433612
C            1.45991412740555       -0.69871480492835        2.78013685128006
C            2.61348036281857       -1.21279206848045        3.29053298788077
C            3.68360701948591       -1.55628267921089        2.44197828777268
C            4.92259674451770       -1.97595251658833        2.96748356711332
C            5.96978794114123       -2.25949725222449        2.13989720572009
C            5.81233143820091       -2.12276374323602        0.75136605230287
C            4.61429228086001       -1.74563398316004        0.21034644499067
C            3.50176170981515       -1.46548310281234        1.03400357263625
C            2.23570789625656       -1.05418529993961        0.51527932938786
C            1.94359608949506       -1.19146173382667       -0.92929480399541
C            1.51975798416211       -0.12097824823957       -1.68835588423684
C            1.31745216613156       -0.26588191321232       -3.07462768541367
C            1.53089655175023       -1.46104750226754       -3.68998809197468
C            1.89903635056222       -2.59978346240456       -2.94848310214533
C            2.06954013943580       -3.84849019039927       -3.58136184047661
C            2.37683242645969       -4.96214002402354       -2.85527213685308
C            2.50989281151232       -4.85924626737742       -1.46166857796749
C            2.36987937433659       -3.65752053722467       -0.82305745972614
C            2.08177482728862       -2.47680143961637       -1.54358000248064
N            1.37338437087901        1.17986691792510       -1.09507592801925
C            1.53674015655827        2.31681069288004       -2.00156070517851
H           -7.07780089333973        0.66326721433940       -2.05888823647495
H           -6.41411926236286        1.88727922124378       -3.13188105356797
H           -5.96429618368541        0.19396909204409       -3.34194361464507
H           -4.16189705018235        1.55679515450211       -2.26281053621931
H           -4.54605214327081        2.40345918837224        0.08010536139359
H           -5.55312619089376        3.19966182523081       -1.13003553453523
H           -6.25224947592395        1.97816876890865       -0.07487006745309
H           -6.53618689365701       -0.33290091531911       -0.10909492723544
H           -6.05871849663934       -2.50689811985733        0.90773031657032
H           -3.90238608178644       -3.59590119787712        0.53382618583415
H           -0.96323100805063       -1.93214464353427       -0.94292084026017
H           -0.32702362722196       -3.97062435111593        0.10431929463095
H           -1.97913914784577       -4.54433800662663        0.25251689895353
H           -1.42693831437287       -3.19328230317881        1.24580366905429
H           -0.91246890322928       -3.97922023673548       -2.35160235799277
H           -2.02356888079641       -2.77175685104186       -3.00521897031919
H           -2.65432355816287       -4.17413575983842       -2.13606427658438
H            2.42765474746199        1.63018225088502        1.02549568034600
H            4.03261213110106        3.52713855051282        1.29428246216753
H            2.71682353789527        4.66654725524475        1.06910241606360
H            3.14462591143741        3.54321151281795       -0.21714363878393
H            3.22038725815539        1.87303999213439        3.14889859688282
H            1.49429966057668        2.00429105159040        3.44926684358344
H            2.50851655124660        3.45205416660350        3.42375821326576
H           -0.76557578559932        4.27006262360939       -0.62463355271993
H            0.66546736699338        5.18337242041524       -0.10749509048122
H           -0.93261713716292        5.65708359943426        0.44950555228766
H           -2.04272881708350        2.81653455448942        1.17388297602056
H           -1.42446564646579        2.85569926533512        2.83448103098035
H           -2.15113196171233        4.28753958004850        2.12281577733359
H            0.42477357988087        4.17338822953533        3.50856960571824
H            1.37838591004969        5.15315811159897        2.38626298666680
H           -0.28158931139369        5.57149069228315        2.73057384348446
H           -1.21784476305267       -1.09903720594261        2.10725404726956
H           -1.99423164018488        0.18925611576791        1.18187583909783
H           -1.04216299513701        0.59654078069670        2.61411857823329
H            0.67770854665144       -0.40337249614126        3.45800687471516
H            2.72948500845607       -1.33252446410587        4.35639620356658
H            5.02554584601257       -2.05145618389088        4.03956074335147