      -----------------------------------------------------------      
     |                   =====================                   |     
     |                           x T B                           |     
     |                   =====================                   |     
     |                         S. Grimme                         |     
     |          Mulliken Center for Theoretical Chemistry        |     
     |                    University of Bonn                     |     
      -----------------------------------------------------------      

   * xtb version 6.7.1 (edcfbbe) compiled by 'conda@3ef47c1a292c' on 2024-11-25

   xtb is free software: you can redistribute it and/or modify it under
   the terms of the GNU Lesser General Public License as published by
   the Free Software Foundation, either version 3 of the License, or
   (at your option) any later version.
   
   xtb is distributed in the hope that it will be useful,
   but WITHOUT ANY WARRANTY; without even the implied warranty of
   MERCHANTABILITY or FITNESS FOR A PARTICULAR PURPOSE.  See the
   GNU Lesser General Public License for more details.
   
   Cite this work as:
   * C. Bannwarth, E. Caldeweyher, S. Ehlert, A. Hansen, P. Pracht,
     J. Seibert, S. Spicher, S. Grimme, WIREs Comput. Mol. Sci., 2020, 11,
     e01493. DOI: 10.1002/wcms.1493
   
   for GFN2-xTB:
   * C. Bannwarth, S. Ehlert and S. Grimme., J. Chem. Theory Comput., 2019,
     15, 1652-1671. DOI: 10.1021/acs.jctc.8b01176
   for GFN1-xTB:
   * S. Grimme, C. Bannwarth, P. Shushkov, J. Chem. Theory Comput., 2017,
     13, 1989-2009. DOI: 10.1021/acs.jctc.7b00118
   for GFN0-xTB:
   * P. Pracht, E. Caldeweyher, S. Ehlert, S. Grimme, ChemRxiv, 2019, preprint.
     DOI: 10.26434/chemrxiv.8326202.v1
   for GFN-FF:
   * S. Spicher and S. Grimme, Angew. Chem. Int. Ed., 2020, 59, 15665-15673.
     DOI: 10.1002/anie.202004239
   
   for ALPB and GBSA implicit solvation:
   * S. Ehlert, M. Stahn, S. Spicher, S. Grimme, J. Chem. Theory Comput.,
     2021, 17, 4250-4261. DOI: 10.1021/acs.jctc.1c00471
   
   for ddCOSMO and CPCM-X implicit solvation:
   * M. Stahn, S. Ehlert, S. Grimme, J. Phys. Chem. A,
     2023, XX, XXXX-XXXX. DOI: 10.1021/acs.jpca.3c04382
   
   for DFT-D4:
   * E. Caldeweyher, C. Bannwarth and S. Grimme, J. Chem. Phys., 2017,
     147, 034112. DOI: 10.1063/1.4993215
   * E. Caldeweyher, S. Ehlert, A. Hansen, H. Neugebauer, S. Spicher,
     C. Bannwarth and S. Grimme, J. Chem. Phys., 2019, 150, 154122.
     DOI: 10.1063/1.5090222
   * E. Caldeweyher, J.-M. Mewes, S. Ehlert and S. Grimme, Phys. Chem. Chem. Phys.
     2020, 22, 8499-8512. DOI: 10.1039/D0CP00502A
   
   for sTDA-xTB:
   * S. Grimme and C. Bannwarth, J. Chem. Phys., 2016, 145, 054103.
     DOI: 10.1063/1.4959605
   
   in the mass-spec context:
   * V. Asgeirsson, C. Bauer and S. Grimme, Chem. Sci., 2017, 8, 4879.
     DOI: 10.1039/c7sc00601b
   * J. Koopman and S. Grimme, ACS Omega 2019, 4, 12, 15120-15133.
     DOI: 10.1021/acsomega.9b02011
   
   for metadynamics refer to:
   * S. Grimme, J. Chem. Theory Comput., 2019, 155, 2847-2862
     DOI: 10.1021/acs.jctc.9b00143
   
   for SPH calculations refer to:
   * S. Spicher and S. Grimme, J. Chem. Theory Comput., 2021, 17, 1701-1714
     DOI: 10.1021/acs.jctc.0c01306
   
   for ONIOM refer to:
   * C. Plett, A. Katbashev, S. Ehlert, S. Grimme, M. Bursch,
     Phys. Chem. Chem. Phys., 2023, 25, 17860-17868. DOI: 10.1039/D3CP02178E
   
   for DIPRO refer to:
   * J. Kohn, N. Gildemeister, S. Grimme, D. Fazzi, A. Hansen,
     J. Chem. Phys., 2023, just accepted.
   
   for PTB refer to:
   * S. Grimme, M. Mueller, A. Hansen, J. Chem. Phys., 2023, 158, 124111.
     DOI: 10.1063/5.0137838
   
   with help from (in alphabetical order)
   P. Atkinson, C. Bannwarth, F. Bohle, G. Brandenburg, E. Caldeweyher
   M. Checinski, S. Dohm, S. Ehlert, S. Ehrlich, I. Gerasimov, C. Hölzer
   A. Katbashev, J. Kohn, J. Koopman, C. Lavigne, S. Lehtola, F. März, M. Müller,
   F. Musil, H. Neugebauer, J. Pisarek, C. Plett, P. Pracht, F. Pultar,
   J. Seibert, P. Shushkov, S. Spicher, M. Stahn, M. Steiner, T. Strunk,
   J. Stückrath, T. Rose, and J. Unsleber
   
 * started run on 2024/12/16 at 17:52:28.128     
   ID    Z sym.   atoms
    1    6 C      1-12, 14-25, 29-34, 36-56, 58
    2    7 N      13, 35, 57
    3   15 P      26
    4   16 S      27, 28
    5    1 H      59-103

           -------------------------------------------------
          |                Calculation Setup                |
           -------------------------------------------------

          program call               : xtb --gfn2 --opt extreme -P 8 --charge 1 molecule.xyz
          hostname                   : node05
          coordinate file            : molecule.xyz
          omp threads                :                     8


           -------------------------------------------------
          |                 G F N 2 - x T B                 |
           -------------------------------------------------

        Reference                      10.1021/acs.jctc.8b01176
      * Hamiltonian:
        H0-scaling (s, p, d)           1.850000    2.230000    2.230000
        zeta-weighting                 0.500000
      * Dispersion:
        s8                             2.700000
        a1                             0.520000
        a2                             5.000000
        s9                             5.000000
      * Repulsion:
        kExp                           1.500000    1.000000
        rExp                           1.000000
      * Coulomb:
        alpha                          2.000000
        third order                    shell-resolved
        anisotropic                    true
        a3                             3.000000
        a5                             4.000000
        cn-shift                       1.200000
        cn-exp                         4.000000
        max-rad                        5.000000


          ...................................................
          :                      SETUP                      :
          :.................................................:
          :  # basis functions                 295          :
          :  # atomic orbitals                 292          :
          :  # shells                          164          :
          :  # electrons                       284          :
          :  max. iterations                   250          :
          :  Hamiltonian                  GFN2-xTB          :
          :  restarted?                      false          :
          :  GBSA solvation                  false          :
          :  PC potential                    false          :
          :  electronic temp.          300.0000000     K    :
          :  accuracy                    1.0000000          :
          :  -> integral cutoff          0.2500000E+02      :
          :  -> integral neglect         0.1000000E-07      :
          :  -> SCF convergence          0.1000000E-05 Eh   :
          :  -> wf. convergence          0.1000000E-03 e    :
          :  Broyden damping             0.4000000          :
          :  net charge                          1          :
          :  unpaired electrons                  0          :
          ...................................................

 iter      E             dE          RMSdq      gap      omega  full diag
   1   -154.1223306 -0.154122E+03  0.445E+00    1.81       0.0  T
   2   -154.2725314 -0.150201E+00  0.270E+00    2.20       1.0  T
   3   -154.2276879  0.448435E-01  0.122E+00    1.96       1.0  T
   4   -154.2828586 -0.551707E-01  0.518E-01    1.63       1.0  T
   5   -154.2991043 -0.162457E-01  0.243E-01    1.68       1.0  T
   6   -154.3014793 -0.237497E-02  0.130E-01    1.73       1.0  T
   7   -154.3033070 -0.182771E-02  0.409E-02    1.72       1.0  T
   8   -154.3033580 -0.509602E-04  0.193E-02    1.72       1.0  T
   9   -154.3033655 -0.752644E-05  0.948E-03    1.73       1.0  T
  10   -154.3033676 -0.210813E-05  0.499E-03    1.72       2.0  T
  11   -154.3033684 -0.794857E-06  0.207E-03    1.72       4.8  T
  12   -154.3033686 -0.225424E-06  0.868E-04    1.72      11.4  T
  13   -154.3033686 -0.158399E-07  0.419E-04    1.72      23.5  T

   *** convergence criteria satisfied after 13 iterations ***

         #    Occupation            Energy/Eh            Energy/eV
      -------------------------------------------------------------
         1        2.0000           -0.8532980             -23.2194
       ...           ...                  ...                  ...
       136        2.0000           -0.4818871             -13.1128
       137        2.0000           -0.4782837             -13.0148
       138        2.0000           -0.4740994             -12.9009
       139        2.0000           -0.4689690             -12.7613
       140        2.0000           -0.4552257             -12.3873
       141        2.0000           -0.4506568             -12.2630
       142        2.0000           -0.4480167             -12.1912 (HOMO)
       143                         -0.3846544             -10.4670 (LUMO)
       144                         -0.3714667             -10.1081
       145                         -0.3534690              -9.6184
       146                         -0.3473875              -9.4529
       147                         -0.3440276              -9.3615
       ...                                ...                  ...
       292                          0.9959568              27.1014
      -------------------------------------------------------------
                  HL-Gap            0.0633622 Eh            1.7242 eV
             Fermi-level           -0.4163356 Eh          -11.3291 eV

 SCC (total)                   0 d,  0 h,  0 min,  2.032 sec
 SCC setup                      ...        0 min,  0.005 sec (  0.245%)
 Dispersion                     ...        0 min,  0.003 sec (  0.149%)
 classical contributions        ...        0 min,  0.000 sec (  0.009%)
 integral evaluation            ...        0 min,  0.012 sec (  0.569%)
 iterations                     ...        0 min,  1.810 sec ( 89.071%)
 molecular gradient             ...        0 min,  0.197 sec (  9.693%)
 printout                       ...        0 min,  0.005 sec (  0.263%)

         :::::::::::::::::::::::::::::::::::::::::::::::::::::
         ::                     SUMMARY                     ::
         :::::::::::::::::::::::::::::::::::::::::::::::::::::
         :: total energy            -151.779601544991 Eh    ::
         :: gradient norm              0.170371145467 Eh/a0 ::
         :: HOMO-LUMO gap              1.724174327261 eV    ::
         ::.................................................::
         :: SCC energy              -154.295382649214 Eh    ::
         :: -> isotropic ES            0.073155839703 Eh    ::
         :: -> anisotropic ES          0.004787790960 Eh    ::
         :: -> anisotropic XC          0.097335344594 Eh    ::
         :: -> dispersion             -0.165831627579 Eh    ::
         :: repulsion energy           2.515781104223 Eh    ::
         :: add. restraining           0.000000000000 Eh    ::
         :: total charge               1.000000000000 e     ::
         :::::::::::::::::::::::::::::::::::::::::::::::::::::

      ----------------------------------------------------------- 
     |                   =====================                   |
     |                        A N C O P T                        |
     |                   =====================                   |
     |               Approximate Normal Coordinate               |
     |                Rational Function Optimizer                |
      ----------------------------------------------------------- 
      ----------------------------------------------------------- 
     |                   =====================                   |
     |                        A N C O P T                        |
     |                   =====================                   |
     |               Approximate Normal Coordinate               |
     |                Rational Function Optimizer                |
      ----------------------------------------------------------- 

          ...................................................
          :                      SETUP                      :
          :.................................................:
          :   optimization level           extreme          :
          :   max. optcycles                  2060          :
          :   ANC micro-cycles                  20          :
          :   degrees of freedom               303          :
          :.................................................:
          :   RF solver                   davidson          :
          :   write xtbopt.log                true          :
          :   linear?                        false          :
          :   energy convergence         0.5000000E-07 Eh   :
          :   grad. convergence          0.5000000E-04 Eh/α :
          :   maxmium RF displ.          1.0000000          :
          :   Hlow (freq-cutoff)         0.1000000E-01      :
          :   Hmax (freq-cutoff)         5.0000000          :
          :   S6 in model hess.         20.0000000          :
          ...................................................

generating ANC from exact Hessian ...
Using Lindh-Hessian (1995)
 Shifting diagonal of input Hessian by    9.9420808013448055E-003
 Lowest  eigenvalues of input Hessian
    0.000000    0.000000    0.000000    0.000000    0.000000    0.000000
    0.010000    0.010047    0.010073    0.010097    0.010160    0.010171
    0.010345    0.010386    0.010513    0.010593    0.010680    0.010816
 Highest eigenvalues
    2.004923    2.024380    2.069739    2.079533    2.080340    2.081938


........................................................................
.............................. CYCLE    1 ..............................
........................................................................

 iter      E             dE          RMSdq      gap      omega  full diag
   1   -154.3033687 -0.154303E+03  0.168E-04    1.72       0.0  T
   2   -154.3033687 -0.288452E-09  0.125E-04    1.72      79.0  T
   3   -154.3033687 -0.960512E-09  0.710E-05    1.72     138.8  T
     SCC iter.                  ...        0 min,  0.327 sec
     gradient                   ...        0 min,  0.122 sec
 * total energy  :  -151.7796016 Eh     change       -0.6413245E-08 Eh
   gradient norm :     0.1703709 Eh/α   predicted     0.0000000E+00 (-100.00%)
   displ. norm   :     0.3981903 α      lambda       -0.3659877E-01
   maximum displ.:     0.0866891 α      in ANC's #65, #99, #20, ...

........................................................................
.............................. CYCLE    2 ..............................
........................................................................

 iter      E             dE          RMSdq      gap      omega  full diag
   1   -154.4008150 -0.154401E+03  0.245E-01    1.76       0.0  T
   2   -154.4009905 -0.175518E-03  0.134E-01    1.82       1.0  T
   3   -154.4008517  0.138781E-03  0.446E-02    1.87       1.0  T
   4   -154.4010211 -0.169354E-03  0.201E-02    1.87       1.0  T
   5   -154.4010399 -0.187564E-04  0.967E-03    1.87       1.0  T
   6   -154.4010462 -0.632972E-05  0.348E-03    1.86       2.8  T
   7   -154.4010468 -0.615866E-06  0.207E-03    1.86       4.8  T
   8   -154.4010470 -0.175056E-06  0.113E-03    1.86       8.7  T
   9   -154.4010470 -0.867621E-08  0.635E-04    1.86      15.5  T
  10   -154.4010470 -0.388084E-08  0.389E-04    1.86      25.3  T
     SCC iter.                  ...        0 min,  1.574 sec
     gradient                   ...        0 min,  0.186 sec
 * total energy  :  -151.8058226 Eh     change       -0.2622110E-01 Eh
   gradient norm :     0.0746576 Eh/α   predicted    -0.2123455E-01 ( -19.02%)
   displ. norm   :     0.4564326 α      lambda       -0.1462001E-01
   maximum displ.:     0.1455434 α      in ANC's #20, #24, #19, ...

........................................................................
.............................. CYCLE    3 ..............................
........................................................................

 iter      E             dE          RMSdq      gap      omega  full diag
   1   -154.4607075 -0.154461E+03  0.215E-01    1.94       0.0  T
   2   -154.4607901 -0.825400E-04  0.117E-01    1.98       1.0  T
   3   -154.4606833  0.106821E-03  0.363E-02    2.00       1.0  T
   4   -154.4608111 -0.127877E-03  0.134E-02    2.00       1.0  T
   5   -154.4608202 -0.901712E-05  0.631E-03    2.00       1.6  T
   6   -154.4608223 -0.211153E-05  0.254E-03    2.00       3.9  T
   7   -154.4608226 -0.385090E-06  0.122E-03    2.00       8.1  T
   8   -154.4608227 -0.628869E-07  0.536E-04    2.00      18.4  T
   9   -154.4608227 -0.578601E-08  0.281E-04    2.00      35.1  T
     SCC iter.                  ...        0 min,  1.380 sec
     gradient                   ...        0 min,  0.134 sec
 * total energy  :  -151.8150765 Eh     change       -0.9253843E-02 Eh
   gradient norm :     0.0184025 Eh/α   predicted    -0.8832909E-02 (  -4.55%)
   displ. norm   :     0.4726354 α      lambda       -0.4318763E-02
   maximum displ.:     0.2095003 α      in ANC's #20, #24, #19, ...

........................................................................
.............................. CYCLE    4 ..............................
........................................................................

 iter      E             dE          RMSdq      gap      omega  full diag
   1   -154.4703561 -0.154470E+03  0.137E-01    2.04       0.0  T
   2   -154.4703844 -0.283592E-04  0.738E-02    2.06       1.0  T
   3   -154.4703633  0.210775E-04  0.183E-02    2.07       1.0  T
   4   -154.4703824 -0.190316E-04  0.101E-02    2.07       1.0  T
   5   -154.4703909 -0.856750E-05  0.381E-03    2.07       2.6  T
   6   -154.4703915 -0.574587E-06  0.191E-03    2.07       5.1  T
   7   -154.4703917 -0.178484E-06  0.818E-04    2.07      12.0  T
   8   -154.4703917 -0.202855E-07  0.471E-04    2.07      20.9  T
     SCC iter.                  ...        0 min,  1.165 sec
     gradient                   ...        0 min,  0.180 sec
 * total energy  :  -151.8183948 Eh     change       -0.3318262E-02 Eh
   gradient norm :     0.0169161 Eh/α   predicted    -0.2641773E-02 ( -20.39%)
   displ. norm   :     0.5737050 α      lambda       -0.3336450E-02
   maximum displ.:     0.2848143 α      in ANC's #20, #24, #15, ...

........................................................................
.............................. CYCLE    5 ..............................
........................................................................

 iter      E             dE          RMSdq      gap      omega  full diag
   1   -154.4748279 -0.154475E+03  0.115E-01    2.09       0.0  T
   2   -154.4748458 -0.178842E-04  0.639E-02    2.10       1.0  T
   3   -154.4748417  0.409699E-05  0.137E-02    2.10       1.0  T
   4   -154.4748476 -0.596899E-05  0.567E-03    2.10       1.7  T
   5   -154.4748484 -0.765994E-06  0.327E-03    2.10       3.0  T
   6   -154.4748490 -0.619250E-06  0.148E-03    2.10       6.6  T
   7   -154.4748491 -0.935004E-07  0.695E-04    2.10      14.2  T
   8   -154.4748491 -0.224659E-07  0.299E-04    2.10      32.9  T
     SCC iter.                  ...        0 min,  0.970 sec
     gradient                   ...        0 min,  0.184 sec
 * total energy  :  -151.8208627 Eh     change       -0.2467937E-02 Eh
   gradient norm :     0.0122644 Eh/α   predicted    -0.2217336E-02 ( -10.15%)
   displ. norm   :     0.5359590 α      lambda       -0.1919916E-02
   maximum displ.:     0.2867310 α      in ANC's #20, #24, #5, ...

........................................................................
.............................. CYCLE    6 ..............................
........................................................................

 iter      E             dE          RMSdq      gap      omega  full diag
   1   -154.4771346 -0.154477E+03  0.947E-02    2.11       0.0  T
   2   -154.4771499 -0.153368E-04  0.500E-02    2.12       1.0  T
   3   -154.4771457  0.417178E-05  0.138E-02    2.13       1.0  T
   4   -154.4771496 -0.386479E-05  0.688E-03    2.13       1.4  T
   5   -154.4771524 -0.279242E-05  0.248E-03    2.13       4.0  T
   6   -154.4771527 -0.313765E-06  0.124E-03    2.13       7.9  T
   7   -154.4771528 -0.115232E-06  0.481E-04    2.13      20.5  T
   8   -154.4771528 -0.654407E-08  0.251E-04    2.13      39.2  T
     SCC iter.                  ...        0 min,  1.197 sec
     gradient                   ...        0 min,  0.136 sec
 * total energy  :  -151.8222738 Eh     change       -0.1411131E-02 Eh
   gradient norm :     0.0086069 Eh/α   predicted    -0.1235710E-02 ( -12.43%)
   displ. norm   :     0.5001785 α      lambda       -0.1230104E-02
   maximum displ.:     0.2608082 α      in ANC's #20, #24, #7, ...

........................................................................
.............................. CYCLE    7 ..............................
........................................................................

 iter      E             dE          RMSdq      gap      omega  full diag
   1   -154.4814456 -0.154481E+03  0.813E-02    2.15       0.0  T
   2   -154.4814519 -0.629658E-05  0.460E-02    2.15       1.0  T
   3   -154.4814448  0.714609E-05  0.113E-02    2.15       1.0  T
   4   -154.4814532 -0.840434E-05  0.427E-03    2.15       2.3  T
   5   -154.4814538 -0.585573E-06  0.209E-03    2.15       4.7  T
   6   -154.4814539 -0.133486E-06  0.109E-03    2.15       9.1  T
   7   -154.4814540 -0.647155E-07  0.623E-04    2.15      15.8  T
   8   -154.4814540 -0.110648E-07  0.325E-04    2.15      30.3  T
     SCC iter.                  ...        0 min,  1.263 sec
     gradient                   ...        0 min,  0.183 sec
 * total energy  :  -151.8231794 Eh     change       -0.9055969E-03 Eh
   gradient norm :     0.0081250 Eh/α   predicted    -0.7689267E-03 ( -15.09%)
   displ. norm   :     0.4618833 α      lambda       -0.8524884E-03
   maximum displ.:     0.2246043 α      in ANC's #20, #7, #5, ...

........................................................................
.............................. CYCLE    8 ..............................
........................................................................

 iter      E             dE          RMSdq      gap      omega  full diag
   1   -154.4843668 -0.154484E+03  0.705E-02    2.17       0.0  T
   2   -154.4843718 -0.494344E-05  0.406E-02    2.17       1.0  T
   3   -154.4843627  0.909865E-05  0.118E-02    2.18       1.0  T
   4   -154.4843732 -0.105465E-04  0.380E-03    2.18       2.6  T
   5   -154.4843737 -0.544933E-06  0.143E-03    2.18       6.9  T
   6   -154.4843739 -0.116755E-06  0.578E-04    2.18      17.0  T
   7   -154.4843739 -0.128501E-07  0.266E-04    2.18      37.0  T
     SCC iter.                  ...        0 min,  0.989 sec
     gradient                   ...        0 min,  0.143 sec
 * total energy  :  -151.8238136 Eh     change       -0.6342191E-03 Eh
   gradient norm :     0.0071756 Eh/α   predicted    -0.5171782E-03 ( -18.45%)
   displ. norm   :     0.4317278 α      lambda       -0.6165164E-03
   maximum displ.:     0.1779072 α      in ANC's #7, #5, #20, ...

........................................................................
.............................. CYCLE    9 ..............................
........................................................................

 iter      E             dE          RMSdq      gap      omega  full diag
   1   -154.4868216 -0.154487E+03  0.644E-02    2.19       0.0  T
   2   -154.4868242 -0.257889E-05  0.368E-02    2.19       1.0  T
   3   -154.4868187  0.554936E-05  0.857E-03    2.19       1.1  T
   4   -154.4868250 -0.632607E-05  0.304E-03    2.19       3.2  T
   5   -154.4868254 -0.361065E-06  0.100E-03    2.19       9.8  T
   6   -154.4868254 -0.590631E-07  0.429E-04    2.19      23.0  T
   7   -154.4868254 -0.894917E-08  0.197E-04    2.19      50.1  T
     SCC iter.                  ...        0 min,  0.997 sec
     gradient                   ...        0 min,  0.125 sec
 * total energy  :  -151.8242813 Eh     change       -0.4676454E-03 Eh
   gradient norm :     0.0054786 Eh/α   predicted    -0.3657182E-03 ( -21.80%)
   displ. norm   :     0.4104771 α      lambda       -0.4716186E-03
   maximum displ.:     0.1860299 α      in ANC's #7, #5, #12, ...

........................................................................
.............................. CYCLE   10 ..............................
........................................................................

 iter      E             dE          RMSdq      gap      omega  full diag
   1   -154.4878206 -0.154488E+03  0.566E-02    2.20       0.0  T
   2   -154.4878226 -0.206261E-05  0.323E-02    2.20       1.0  T
   3   -154.4878196  0.299746E-05  0.666E-03    2.20       1.5  T
   4   -154.4878229 -0.327165E-05  0.282E-03    2.20       3.5  T
   5   -154.4878233 -0.405382E-06  0.110E-03    2.20       9.0  T
   6   -154.4878234 -0.825544E-07  0.468E-04    2.20      21.0  T
   7   -154.4878234 -0.826310E-08  0.276E-04    2.20      35.7  T
     SCC iter.                  ...        0 min,  0.948 sec
     gradient                   ...        0 min,  0.121 sec
 * total energy  :  -151.8246536 Eh     change       -0.3723005E-03 Eh
   gradient norm :     0.0051270 Eh/α   predicted    -0.2755489E-03 ( -25.99%)
   displ. norm   :     0.4272757 α      lambda       -0.4290921E-03
   maximum displ.:     0.2050109 α      in ANC's #7, #5, #12, ...

........................................................................
.............................. CYCLE   11 ..............................
........................................................................

 iter      E             dE          RMSdq      gap      omega  full diag
   1   -154.4879254 -0.154488E+03  0.631E-02    2.20       0.0  T
   2   -154.4879276 -0.222150E-05  0.351E-02    2.20       1.0  T
   3   -154.4879260  0.161636E-05  0.664E-03    2.21       1.5  T
   4   -154.4879271 -0.106950E-05  0.376E-03    2.21       2.6  T
   5   -154.4879282 -0.110040E-05  0.113E-03    2.21       8.7  T
   6   -154.4879283 -0.115896E-06  0.362E-04    2.21      27.2  T
   7   -154.4879283 -0.497630E-08  0.194E-04    2.21      50.8  T
     SCC iter.                  ...        0 min,  0.944 sec
     gradient                   ...        0 min,  0.121 sec
 * total energy  :  -151.8249982 Eh     change       -0.3446444E-03 Eh
   gradient norm :     0.0052647 Eh/α   predicted    -0.2537272E-03 ( -26.38%)
   displ. norm   :     0.4540364 α      lambda       -0.3960488E-03
   maximum displ.:     0.2265334 α      in ANC's #7, #5, #12, ...

........................................................................
.............................. CYCLE   12 ..............................
........................................................................

 iter      E             dE          RMSdq      gap      omega  full diag
   1   -154.4876632 -0.154488E+03  0.717E-02    2.21       0.0  T
   2   -154.4876655 -0.228708E-05  0.404E-02    2.21       1.0  T
   3   -154.4876637  0.172880E-05  0.674E-03    2.21       1.5  T
   4   -154.4876643 -0.578208E-06  0.432E-03    2.21       2.3  T
   5   -154.4876661 -0.177191E-05  0.107E-03    2.21       9.2  T
   6   -154.4876662 -0.103547E-06  0.371E-04    2.21      26.6  T
   7   -154.4876662 -0.339421E-08  0.213E-04    2.21      46.2  T
     SCC iter.                  ...        0 min,  1.165 sec
     gradient                   ...        0 min,  0.138 sec
 * total energy  :  -151.8253128 Eh     change       -0.3145524E-03 Eh
   gradient norm :     0.0047343 Eh/α   predicted    -0.2388478E-03 ( -24.07%)
   displ. norm   :     0.4507598 α      lambda       -0.3236120E-03
   maximum displ.:     0.2325652 α      in ANC's #7, #5, #12, ...

........................................................................
.............................. CYCLE   13 ..............................
........................................................................

 iter      E             dE          RMSdq      gap      omega  full diag
   1   -154.4874003 -0.154487E+03  0.750E-02    2.22       0.0  T
   2   -154.4874025 -0.220487E-05  0.424E-02    2.22       1.0  T
   3   -154.4874008  0.173044E-05  0.688E-03    2.22       1.4  T
   4   -154.4874013 -0.522820E-06  0.436E-03    2.22       2.3  T
   5   -154.4874031 -0.180022E-05  0.110E-03    2.22       9.0  T
   6   -154.4874032 -0.116102E-06  0.383E-04    2.22      25.8  T
   7   -154.4874032 -0.430009E-08  0.219E-04    2.22      45.0  T
     SCC iter.                  ...        0 min,  0.947 sec
     gradient                   ...        0 min,  0.125 sec
 * total energy  :  -151.8255659 Eh     change       -0.2531071E-03 Eh
   gradient norm :     0.0037890 Eh/α   predicted    -0.1946840E-03 ( -23.08%)
   displ. norm   :     0.4190080 α      lambda       -0.2477172E-03
   maximum displ.:     0.2213044 α      in ANC's #7, #5, #12, ...

........................................................................
.............................. CYCLE   14 ..............................
........................................................................

 iter      E             dE          RMSdq      gap      omega  full diag
   1   -154.4880142 -0.154488E+03  0.705E-02    2.23       0.0  T
   2   -154.4880161 -0.196020E-05  0.399E-02    2.23       1.0  T
   3   -154.4880150  0.114235E-05  0.636E-03    2.23       1.5  T
   4   -154.4880155 -0.506595E-06  0.372E-03    2.23       2.6  T
   5   -154.4880166 -0.115589E-05  0.913E-04    2.23      10.8  T
   6   -154.4880167 -0.795470E-07  0.361E-04    2.23      27.3  T
   7   -154.4880167 -0.538185E-08  0.187E-04    2.23      52.6  T
     SCC iter.                  ...        0 min,  1.182 sec
     gradient                   ...        0 min,  0.188 sec
 * total energy  :  -151.8257621 Eh     change       -0.1961915E-03 Eh
   gradient norm :     0.0035472 Eh/α   predicted    -0.1456047E-03 ( -25.78%)
   displ. norm   :     0.4048560 α      lambda       -0.2148152E-03
   maximum displ.:     0.2151482 α      in ANC's #7, #5, #12, ...

........................................................................
.............................. CYCLE   15 ..............................
........................................................................

 iter      E             dE          RMSdq      gap      omega  full diag
   1   -154.4889113 -0.154489E+03  0.666E-02    2.24       0.0  T
   2   -154.4889131 -0.176420E-05  0.377E-02    2.24       1.0  T
   3   -154.4889119  0.112756E-05  0.613E-03    2.24       1.6  T
   4   -154.4889125 -0.588249E-06  0.349E-03    2.24       2.8  T
   5   -154.4889135 -0.102498E-05  0.882E-04    2.24      11.2  T
   6   -154.4889136 -0.721448E-07  0.413E-04    2.24      23.9  T
   7   -154.4889136 -0.597117E-08  0.217E-04    2.24      45.4  T
     SCC iter.                  ...        0 min,  0.874 sec
     gradient                   ...        0 min,  0.121 sec
 * total energy  :  -151.8259359 Eh     change       -0.1738083E-03 Eh
   gradient norm :     0.0038874 Eh/α   predicted    -0.1250149E-03 ( -28.07%)
   displ. norm   :     0.4237774 α      lambda       -0.2116152E-03
   maximum displ.:     0.2222498 α      in ANC's #7, #5, #2, ...

........................................................................
.............................. CYCLE   16 ..............................
........................................................................

 iter      E             dE          RMSdq      gap      omega  full diag
   1   -154.4902497 -0.154490E+03  0.686E-02    2.25       0.0  T
   2   -154.4902518 -0.205716E-05  0.387E-02    2.25       1.0  T
   3   -154.4902507  0.103187E-05  0.654E-03    2.25       1.5  T
   4   -154.4902514 -0.715514E-06  0.341E-03    2.25       2.9  T
   5   -154.4902524 -0.904945E-06  0.709E-04    2.25      13.9  T
   6   -154.4902524 -0.329749E-07  0.377E-04    2.25      26.1  T
     SCC iter.                  ...        0 min,  0.812 sec
     gradient                   ...        0 min,  0.125 sec
 * total energy  :  -151.8261040 Eh     change       -0.1681026E-03 Eh
   gradient norm :     0.0038400 Eh/α   predicted    -0.1248123E-03 ( -25.75%)
   displ. norm   :     0.4386161 α      lambda       -0.1858839E-03
   maximum displ.:     0.2257231 α      in ANC's #7, #5, #2, ...

........................................................................
.............................. CYCLE   17 ..............................
........................................................................

 iter      E             dE          RMSdq      gap      omega  full diag
   1   -154.4898463 -0.154490E+03  0.685E-02    2.25       0.0  T
   2   -154.4898483 -0.203925E-05  0.388E-02    2.25       1.0  T
   3   -154.4898469  0.148786E-05  0.674E-03    2.25       1.5  T
   4   -154.4898480 -0.112970E-05  0.348E-03    2.25       2.8  T
   5   -154.4898490 -0.962607E-06  0.901E-04    2.25      10.9  T
   6   -154.4898490 -0.688093E-07  0.441E-04    2.25      22.3  T
     SCC iter.                  ...        0 min,  0.888 sec
     gradient                   ...        0 min,  0.163 sec
 * total energy  :  -151.8262416 Eh     change       -0.1376302E-03 Eh
   gradient norm :     0.0029813 Eh/α   predicted    -0.1108255E-03 ( -19.48%)
   displ. norm   :     0.3931805 α      lambda       -0.1511579E-03
   maximum displ.:     0.1903562 α      in ANC's #7, #5, #4, ...

........................................................................
.............................. CYCLE   18 ..............................
........................................................................

 iter      E             dE          RMSdq      gap      omega  full diag
   1   -154.4917666 -0.154492E+03  0.626E-02    2.25       0.0  T
   2   -154.4917686 -0.199642E-05  0.355E-02    2.25       1.0  T
   3   -154.4917677  0.823599E-06  0.562E-03    2.25       1.8  T
   4   -154.4917683 -0.547358E-06  0.309E-03    2.25       3.2  T
   5   -154.4917691 -0.773664E-06  0.708E-04    2.25      13.9  T
   6   -154.4917691 -0.236278E-07  0.372E-04    2.25      26.5  T
     SCC iter.                  ...        0 min,  0.822 sec
     gradient                   ...        0 min,  0.182 sec
 * total energy  :  -151.8263205 Eh     change       -0.7885626E-04 Eh
   gradient norm :     0.0047329 Eh/α   predicted    -0.8726496E-04 (  10.66%)
   displ. norm   :     0.2708354 α      lambda       -0.1102489E-03
   maximum displ.:     0.1328380 α      in ANC's #5, #7, #4, ...

........................................................................
.............................. CYCLE   19 ..............................
........................................................................

 iter      E             dE          RMSdq      gap      omega  full diag
   1   -154.4903599 -0.154490E+03  0.402E-02    2.25       0.0  T
   2   -154.4903610 -0.108912E-05  0.230E-02    2.25       1.0  T
   3   -154.4903603  0.678128E-06  0.433E-03    2.25       2.3  T
   4   -154.4903611 -0.807252E-06  0.162E-03    2.25       6.1  T
   5   -154.4903612 -0.102799E-06  0.754E-04    2.25      13.1  T
   6   -154.4903613 -0.395564E-07  0.309E-04    2.25      31.9  T
     SCC iter.                  ...        0 min,  0.634 sec
     gradient                   ...        0 min,  0.121 sec
 * total energy  :  -151.8263894 Eh     change       -0.6895174E-04 Eh
   gradient norm :     0.0024697 Eh/α   predicted    -0.5917237E-04 ( -14.18%)
   displ. norm   :     0.1786694 α      lambda       -0.6369574E-04
   maximum displ.:     0.0837788 α      in ANC's #5, #7, #4, ...

........................................................................
.............................. CYCLE   20 ..............................
........................................................................

 iter      E             dE          RMSdq      gap      omega  full diag
   1   -154.4903541 -0.154490E+03  0.266E-02    2.25       0.0  T
   2   -154.4903544 -0.226848E-06  0.154E-02    2.25       1.0  T
   3   -154.4903540  0.338640E-06  0.236E-03    2.25       4.2  T
   4   -154.4903544 -0.362089E-06  0.102E-03    2.25       9.7  T
   5   -154.4903545 -0.599525E-07  0.353E-04    2.25      27.9  T
   6   -154.4903545 -0.107810E-07  0.144E-04    2.25      68.4  T
     SCC iter.                  ...        0 min,  0.799 sec
     gradient                   ...        0 min,  0.152 sec
 * total energy  :  -151.8264435 Eh     change       -0.5407237E-04 Eh
   gradient norm :     0.0023966 Eh/α   predicted    -0.3286757E-04 ( -39.22%)
   displ. norm   :     0.3159203 α      lambda       -0.1330352E-03
   maximum displ.:     0.1322773 α      in ANC's #4, #5, #7, ...
 * RMSD in coord.:     0.6001029 α      energy gain  -0.4684196E-01 Eh

generating ANC from exact Hessian ...
Using Lindh-Hessian (1995)
 Shifting diagonal of input Hessian by    9.9290150697773517E-003
 Lowest  eigenvalues of input Hessian
    0.000000    0.000000    0.000000    0.000000    0.000000    0.000000
    0.010000    0.010033    0.010082    0.010118    0.010166    0.010240
    0.010402    0.010411    0.010553    0.010603    0.010721    0.010818
 Highest eigenvalues
    2.031981    2.070108    2.111531    2.123534    2.125022    2.125206


........................................................................
.............................. CYCLE   21 ..............................
........................................................................

 iter      E             dE          RMSdq      gap      omega  full diag
   1   -154.4910264 -0.154491E+03  0.481E-02    2.26       0.0  T
   2   -154.4910270 -0.594842E-06  0.280E-02    2.26       1.0  T
   3   -154.4910257  0.126913E-05  0.422E-03    2.26       2.3  T
   4   -154.4910272 -0.151956E-05  0.124E-03    2.26       7.9  T
   5   -154.4910273 -0.407229E-07  0.535E-04    2.26      18.4  T
   6   -154.4910273 -0.183351E-07  0.224E-04    2.26      43.9  T
     SCC iter.                  ...        0 min,  0.680 sec
     gradient                   ...        0 min,  0.153 sec
 * total energy  :  -151.8265406 Eh     change       -0.9712865E-04 Eh
   gradient norm :     0.0025182 Eh/α   predicted     0.0000000E+00 (-100.00%)
   displ. norm   :     0.0403502 α      lambda       -0.2966850E-04
   maximum displ.:     0.0139357 α      in ANC's #4, #12, #5, ...

........................................................................
.............................. CYCLE   22 ..............................
........................................................................

 iter      E             dE          RMSdq      gap      omega  full diag
   1   -154.4909469 -0.154491E+03  0.916E-03    2.26       0.0  T
   2   -154.4909469 -0.592776E-07  0.525E-03    2.26       1.9  T
   3   -154.4909468  0.105563E-06  0.115E-03    2.26       8.5  T
   4   -154.4909470 -0.117127E-06  0.431E-04    2.26      22.9  T
   5   -154.4909470 -0.852975E-08  0.180E-04    2.26      54.6  T
     SCC iter.                  ...        0 min,  0.638 sec
     gradient                   ...        0 min,  0.169 sec
 * total energy  :  -151.8265674 Eh     change       -0.2675414E-04 Eh
   gradient norm :     0.0013416 Eh/α   predicted    -0.1555475E-04 ( -41.86%)
   displ. norm   :     0.2353910 α      lambda       -0.8274598E-04
   maximum displ.:     0.0852964 α      in ANC's #4, #12, #5, ...

........................................................................
.............................. CYCLE   23 ..............................
........................................................................

 iter      E             dE          RMSdq      gap      omega  full diag
   1   -154.4902933 -0.154490E+03  0.449E-02    2.26       0.0  T
   2   -154.4902941 -0.865715E-06  0.259E-02    2.27       1.0  T
   3   -154.4902928  0.137232E-05  0.414E-03    2.27       2.4  T
   4   -154.4902943 -0.154388E-05  0.161E-03    2.27       6.1  T
   5   -154.4902945 -0.145350E-06  0.646E-04    2.27      15.2  T
   6   -154.4902945 -0.189745E-07  0.297E-04    2.27      33.2  T
     SCC iter.                  ...        0 min,  0.646 sec
     gradient                   ...        0 min,  0.124 sec
 * total energy  :  -151.8266255 Eh     change       -0.5810686E-04 Eh
   gradient norm :     0.0034340 Eh/α   predicted    -0.4239276E-04 ( -27.04%)
   displ. norm   :     0.0512152 α      lambda       -0.2424050E-04
   maximum displ.:     0.0217960 α      in ANC's #4, #5, #12, ...

........................................................................
.............................. CYCLE   24 ..............................
........................................................................

 iter      E             dE          RMSdq      gap      omega  full diag
   1   -154.4905976 -0.154491E+03  0.863E-03    2.27       0.0  T
   2   -154.4905976 -0.466927E-07  0.498E-03    2.27       2.0  T
   3   -154.4905976  0.507261E-07  0.923E-04    2.27      10.7  T
   4   -154.4905976 -0.578180E-07  0.369E-04    2.27      26.7  T
     SCC iter.                  ...        0 min,  0.521 sec
     gradient                   ...        0 min,  0.178 sec
 * total energy  :  -151.8266477 Eh     change       -0.2219703E-04 Eh
   gradient norm :     0.0026219 Eh/α   predicted    -0.1215221E-04 ( -45.25%)
   displ. norm   :     0.2428067 α      lambda       -0.9655672E-04
   maximum displ.:     0.1024630 α      in ANC's #4, #5, #12, ...

........................................................................
.............................. CYCLE   25 ..............................
........................................................................

 iter      E             dE          RMSdq      gap      omega  full diag
   1   -154.4910850 -0.154491E+03  0.400E-02    2.27       0.0  T
   2   -154.4910858 -0.739742E-06  0.232E-02    2.27       1.0  T
   3   -154.4910849  0.919608E-06  0.379E-03    2.27       2.6  T
   4   -154.4910860 -0.110297E-05  0.136E-03    2.27       7.2  T
   5   -154.4910860 -0.734822E-07  0.567E-04    2.27      17.4  T
   6   -154.4910861 -0.172513E-07  0.213E-04    2.27      46.2  T
     SCC iter.                  ...        0 min,  0.907 sec
     gradient                   ...        0 min,  0.128 sec
 * total energy  :  -151.8267113 Eh     change       -0.6363272E-04 Eh
   gradient norm :     0.0015756 Eh/α   predicted    -0.5115983E-04 ( -19.60%)
   displ. norm   :     0.2684363 α      lambda       -0.3266523E-04
   maximum displ.:     0.1177268 α      in ANC's #4, #5, #12, ...

........................................................................
.............................. CYCLE   26 ..............................
........................................................................

 iter      E             dE          RMSdq      gap      omega  full diag
   1   -154.4908171 -0.154491E+03  0.414E-02    2.27       0.0  T
   2   -154.4908177 -0.626566E-06  0.241E-02    2.27       1.0  T
   3   -154.4908167  0.102714E-05  0.378E-03    2.27       2.6  T
   4   -154.4908179 -0.116736E-05  0.138E-03    2.27       7.2  T
   5   -154.4908180 -0.104976E-06  0.557E-04    2.27      17.7  T
   6   -154.4908180 -0.165663E-07  0.238E-04    2.27      41.4  T
     SCC iter.                  ...        0 min,  0.782 sec
     gradient                   ...        0 min,  0.176 sec
 * total energy  :  -151.8267422 Eh     change       -0.3091991E-04 Eh
   gradient norm :     0.0025821 Eh/α   predicted    -0.1685619E-04 ( -45.48%)
   displ. norm   :     0.1160664 α      lambda       -0.2628064E-04
   maximum displ.:     0.0555622 α      in ANC's #5, #4, #12, ...

........................................................................
.............................. CYCLE   27 ..............................
........................................................................

 iter      E             dE          RMSdq      gap      omega  full diag
   1   -154.4910887 -0.154491E+03  0.183E-02    2.27       0.0  T
   2   -154.4910888 -0.186137E-06  0.103E-02    2.27       1.0  T
   3   -154.4910887  0.146225E-06  0.189E-03    2.27       5.2  T
   4   -154.4910888 -0.111270E-06  0.108E-03    2.27       9.1  T
   5   -154.4910889 -0.837269E-07  0.348E-04    2.27      28.4  T
   6   -154.4910889 -0.833177E-08  0.167E-04    2.27      59.2  T
     SCC iter.                  ...        0 min,  0.699 sec
     gradient                   ...        0 min,  0.121 sec
 * total energy  :  -151.8267650 Eh     change       -0.2280665E-04 Eh
   gradient norm :     0.0018794 Eh/α   predicted    -0.1331811E-04 ( -41.60%)
   displ. norm   :     0.3713524 α      lambda       -0.6086848E-04
   maximum displ.:     0.1838095 α      in ANC's #5, #4, #8, ...

........................................................................
.............................. CYCLE   28 ..............................
........................................................................

 iter      E             dE          RMSdq      gap      omega  full diag
   1   -154.4915298 -0.154492E+03  0.535E-02    2.27       0.0  T
   2   -154.4915311 -0.133431E-05  0.308E-02    2.27       1.0  T
   3   -154.4915298  0.128083E-05  0.510E-03    2.27       1.9  T
   4   -154.4915312 -0.139234E-05  0.238E-03    2.27       4.1  T
   5   -154.4915315 -0.297351E-06  0.827E-04    2.27      11.9  T
   6   -154.4915316 -0.478563E-07  0.332E-04    2.27      29.7  T
     SCC iter.                  ...        0 min,  0.802 sec
     gradient                   ...        0 min,  0.124 sec
 * total energy  :  -151.8268200 Eh     change       -0.5498355E-04 Eh
   gradient norm :     0.0026614 Eh/α   predicted    -0.3230113E-04 ( -41.25%)
   displ. norm   :     0.2011385 α      lambda       -0.3776856E-04
   maximum displ.:     0.1009672 α      in ANC's #5, #4, #7, ...

........................................................................
.............................. CYCLE   29 ..............................
........................................................................

 iter      E             dE          RMSdq      gap      omega  full diag
   1   -154.4909327 -0.154491E+03  0.309E-02    2.27       0.0  T
   2   -154.4909335 -0.772406E-06  0.171E-02    2.27       1.0  T
   3   -154.4909331  0.430800E-06  0.351E-03    2.27       2.8  T
   4   -154.4909333 -0.242367E-06  0.209E-03    2.27       4.7  T
   5   -154.4909336 -0.345148E-06  0.710E-04    2.27      13.9  T
   6   -154.4909337 -0.324206E-07  0.324E-04    2.27      30.4  T
     SCC iter.                  ...        0 min,  0.799 sec
     gradient                   ...        0 min,  0.146 sec
 * total energy  :  -151.8268496 Eh     change       -0.2956322E-04 Eh
   gradient norm :     0.0024800 Eh/α   predicted    -0.1965053E-04 ( -33.53%)
   displ. norm   :     0.2554759 α      lambda       -0.4769662E-04
   maximum displ.:     0.1319932 α      in ANC's #5, #4, #7, ...

........................................................................
.............................. CYCLE   30 ..............................
........................................................................

 iter      E             dE          RMSdq      gap      omega  full diag
   1   -154.4906764 -0.154491E+03  0.345E-02    2.26       0.0  T
   2   -154.4906768 -0.420243E-06  0.197E-02    2.26       1.0  T
   3   -154.4906765  0.293143E-06  0.272E-03    2.26       3.6  T
   4   -154.4906767 -0.256591E-06  0.156E-03    2.26       6.3  T
   5   -154.4906769 -0.165124E-06  0.502E-04    2.26      19.6  T
   6   -154.4906769 -0.210374E-07  0.223E-04    2.26      44.2  T
     SCC iter.                  ...        0 min,  0.812 sec
     gradient                   ...        0 min,  0.186 sec
 * total energy  :  -151.8268897 Eh     change       -0.4014424E-04 Eh
   gradient norm :     0.0017441 Eh/α   predicted    -0.2540931E-04 ( -36.70%)
   displ. norm   :     0.4785629 α      lambda       -0.5816503E-04
   maximum displ.:     0.2513904 α      in ANC's #5, #4, #7, ...

........................................................................
.............................. CYCLE   31 ..............................
........................................................................

 iter      E             dE          RMSdq      gap      omega  full diag
   1   -154.4904610 -0.154490E+03  0.604E-02    2.26       0.0  T
   2   -154.4904623 -0.123689E-05  0.347E-02    2.26       1.0  T
   3   -154.4904612  0.111244E-05  0.469E-03    2.26       2.1  T
   4   -154.4904624 -0.121963E-05  0.226E-03    2.26       4.4  T
   5   -154.4904626 -0.275179E-06  0.933E-04    2.26      10.6  T
   6   -154.4904627 -0.732579E-07  0.321E-04    2.26      30.7  T
     SCC iter.                  ...        0 min,  0.690 sec
     gradient                   ...        0 min,  0.124 sec
 * total energy  :  -151.8269464 Eh     change       -0.5669001E-04 Eh
   gradient norm :     0.0015053 Eh/α   predicted    -0.3204343E-04 ( -43.48%)
   displ. norm   :     0.2338752 α      lambda       -0.2172785E-04
   maximum displ.:     0.1275294 α      in ANC's #5, #4, #3, ...

........................................................................
.............................. CYCLE   32 ..............................
........................................................................

 iter      E             dE          RMSdq      gap      omega  full diag
   1   -154.4907565 -0.154491E+03  0.269E-02    2.26       0.0  T
   2   -154.4907568 -0.244422E-06  0.155E-02    2.26       1.0  T
   3   -154.4907567  0.109725E-06  0.184E-03    2.26       5.3  T
   4   -154.4907568 -0.110609E-06  0.108E-03    2.26       9.1  T
   5   -154.4907568 -0.731328E-07  0.362E-04    2.26      27.2  T
   6   -154.4907569 -0.110670E-07  0.153E-04    2.26      64.3  T
     SCC iter.                  ...        0 min,  0.860 sec
     gradient                   ...        0 min,  0.205 sec
 * total energy  :  -151.8269736 Eh     change       -0.2713746E-04 Eh
   gradient norm :     0.0012905 Eh/α   predicted    -0.1113095E-04 ( -58.98%)
   displ. norm   :     0.3148372 α      lambda       -0.3813943E-04
   maximum displ.:     0.1726697 α      in ANC's #5, #4, #3, ...

........................................................................
.............................. CYCLE   33 ..............................
........................................................................

 iter      E             dE          RMSdq      gap      omega  full diag
   1   -154.4919289 -0.154492E+03  0.369E-02    2.27       0.0  T
   2   -154.4919296 -0.771266E-06  0.201E-02    2.27       1.0  T
   3   -154.4919294  0.195817E-06  0.373E-03    2.27       2.6  T
   4   -154.4919295 -0.634159E-07  0.217E-03    2.27       4.5  T
   5   -154.4919298 -0.283339E-06  0.760E-04    2.27      13.0  T
   6   -154.4919299 -0.616807E-07  0.211E-04    2.27      46.6  T
     SCC iter.                  ...        0 min,  0.775 sec
     gradient                   ...        0 min,  0.123 sec
 * total energy  :  -151.8270120 Eh     change       -0.3838802E-04 Eh
   gradient norm :     0.0012360 Eh/α   predicted    -0.1991116E-04 ( -48.13%)
   displ. norm   :     0.3570109 α      lambda       -0.3619389E-04
   maximum displ.:     0.1975782 α      in ANC's #5, #4, #3, ...

........................................................................
.............................. CYCLE   34 ..............................
........................................................................

 iter      E             dE          RMSdq      gap      omega  full diag
   1   -154.4903858 -0.154490E+03  0.385E-02    2.27       0.0  T
   2   -154.4903868 -0.998632E-06  0.219E-02    2.27       1.0  T
   3   -154.4903863  0.460276E-06  0.406E-03    2.27       2.4  T
   4   -154.4903869 -0.634037E-06  0.173E-03    2.27       5.7  T
   5   -154.4903870 -0.910216E-07  0.651E-04    2.27      15.1  T
   6   -154.4903871 -0.299709E-07  0.261E-04    2.27      37.7  T
     SCC iter.                  ...        0 min,  0.947 sec
     gradient                   ...        0 min,  0.125 sec
 * total energy  :  -151.8270471 Eh     change       -0.3519424E-04 Eh
   gradient norm :     0.0015638 Eh/α   predicted    -0.1912489E-04 ( -45.66%)
   displ. norm   :     0.2320590 α      lambda       -0.2177043E-04
   maximum displ.:     0.1301217 α      in ANC's #5, #4, #3, ...

........................................................................
.............................. CYCLE   35 ..............................
........................................................................

 iter      E             dE          RMSdq      gap      omega  full diag
   1   -154.4911955 -0.154491E+03  0.254E-02    2.27       0.0  T
   2   -154.4911959 -0.355787E-06  0.145E-02    2.27       1.0  T
   3   -154.4911957  0.201314E-06  0.225E-03    2.27       4.4  T
   4   -154.4911959 -0.258126E-06  0.120E-03    2.27       8.2  T
   5   -154.4911960 -0.588379E-07  0.415E-04    2.27      23.8  T
   6   -154.4911960 -0.132767E-07  0.151E-04    2.27      65.4  T
     SCC iter.                  ...        0 min,  0.948 sec
     gradient                   ...        0 min,  0.190 sec
 * total energy  :  -151.8270740 Eh     change       -0.2688089E-04 Eh
   gradient norm :     0.0014181 Eh/α   predicted    -0.1114932E-04 ( -58.52%)
   displ. norm   :     0.3720255 α      lambda       -0.3790117E-04
   maximum displ.:     0.2071377 α      in ANC's #5, #3, #4, ...

........................................................................
.............................. CYCLE   36 ..............................
........................................................................

 iter      E             dE          RMSdq      gap      omega  full diag
   1   -154.4913917 -0.154491E+03  0.422E-02    2.28       0.0  T
   2   -154.4913928 -0.117971E-05  0.241E-02    2.28       1.0  T
   3   -154.4913921  0.725859E-06  0.416E-03    2.28       2.4  T
   4   -154.4913931 -0.984747E-06  0.205E-03    2.28       4.8  T
   5   -154.4913933 -0.148727E-06  0.673E-04    2.28      14.6  T
   6   -154.4913933 -0.261785E-07  0.257E-04    2.28      38.4  T
     SCC iter.                  ...        0 min,  0.833 sec
     gradient                   ...        0 min,  0.134 sec
 * total energy  :  -151.8271177 Eh     change       -0.4368636E-04 Eh
   gradient norm :     0.0013321 Eh/α   predicted    -0.2011936E-04 ( -53.95%)
   displ. norm   :     0.4188871 α      lambda       -0.3849784E-04
   maximum displ.:     0.2283177 α      in ANC's #5, #3, #4, ...

........................................................................
.............................. CYCLE   37 ..............................
........................................................................

 iter      E             dE          RMSdq      gap      omega  full diag
   1   -154.4923082 -0.154492E+03  0.490E-02    2.28       0.0  T
   2   -154.4923099 -0.169998E-05  0.283E-02    2.28       1.0  T
   3   -154.4923080  0.192347E-05  0.547E-03    2.28       1.8  T
   4   -154.4923103 -0.230423E-05  0.268E-03    2.28       3.7  T
   5   -154.4923106 -0.319959E-06  0.904E-04    2.28      10.9  T
   6   -154.4923107 -0.379050E-07  0.385E-04    2.28      25.6  T
     SCC iter.                  ...        0 min,  0.690 sec
     gradient                   ...        0 min,  0.120 sec
 * total energy  :  -151.8271598 Eh     change       -0.4213181E-04 Eh
   gradient norm :     0.0022137 Eh/α   predicted    -0.2075364E-04 ( -50.74%)
   displ. norm   :     0.2789099 α      lambda       -0.4063332E-04
   maximum displ.:     0.1472596 α      in ANC's #5, #3, #4, ...

........................................................................
.............................. CYCLE   38 ..............................
........................................................................

 iter      E             dE          RMSdq      gap      omega  full diag
   1   -154.4925803 -0.154493E+03  0.347E-02    2.29       0.0  T
   2   -154.4925812 -0.956628E-06  0.200E-02    2.29       1.0  T
   3   -154.4925805  0.743427E-06  0.367E-03    2.29       2.7  T
   4   -154.4925814 -0.907249E-06  0.200E-03    2.29       4.9  T
   5   -154.4925816 -0.197298E-06  0.678E-04    2.29      14.5  T
   6   -154.4925816 -0.213939E-07  0.310E-04    2.29      31.8  T
     SCC iter.                  ...        0 min,  0.778 sec
     gradient                   ...        0 min,  0.120 sec
 * total energy  :  -151.8271944 Eh     change       -0.3453842E-04 Eh
   gradient norm :     0.0023665 Eh/α   predicted    -0.2190203E-04 ( -36.59%)
   displ. norm   :     0.4673452 α      lambda       -0.7861773E-04
   maximum displ.:     0.2329792 α      in ANC's #5, #3, #4, ...

........................................................................
.............................. CYCLE   39 ..............................
........................................................................

 iter      E             dE          RMSdq      gap      omega  full diag
   1   -154.4926636 -0.154493E+03  0.627E-02    2.29       0.0  T
   2   -154.4926668 -0.325521E-05  0.362E-02    2.29       1.0  T
   3   -154.4926641  0.270423E-05  0.677E-03    2.29       1.5  T
   4   -154.4926673 -0.321434E-05  0.374E-03    2.29       2.6  T
   5   -154.4926681 -0.755219E-06  0.120E-03    2.29       8.2  T
   6   -154.4926682 -0.547271E-07  0.587E-04    2.29      16.8  T
   7   -154.4926682 -0.198688E-07  0.266E-04    2.29      37.0  T
     SCC iter.                  ...        0 min,  0.748 sec
     gradient                   ...        0 min,  0.133 sec
 * total energy  :  -151.8272591 Eh     change       -0.6471236E-04 Eh
   gradient norm :     0.0030811 Eh/α   predicted    -0.4789513E-04 ( -25.99%)
   displ. norm   :     0.4519782 α      lambda       -0.1045524E-03
   maximum displ.:     0.1866109 α      in ANC's #5, #3, #6, ...

........................................................................
.............................. CYCLE   40 ..............................
........................................................................

 iter      E             dE          RMSdq      gap      omega  full diag
   1   -154.4930245 -0.154493E+03  0.688E-02    2.30       0.0  T
   2   -154.4930284 -0.398809E-05  0.398E-02    2.30       1.0  T
   3   -154.4930249  0.358121E-05  0.763E-03    2.30       1.3  T
   4   -154.4930290 -0.415077E-05  0.421E-03    2.30       2.3  T
   5   -154.4930300 -0.100453E-05  0.131E-03    2.30       7.5  T
   6   -154.4930301 -0.607689E-07  0.685E-04    2.30      14.4  T
   7   -154.4930301 -0.245196E-07  0.318E-04    2.30      30.9  T
     SCC iter.                  ...        0 min,  0.954 sec
     gradient                   ...        0 min,  0.119 sec
 * total energy  :  -151.8273435 Eh     change       -0.8436432E-04 Eh
   gradient norm :     0.0034642 Eh/α   predicted    -0.6295770E-04 ( -25.37%)
   displ. norm   :     0.3871809 α      lambda       -0.1247452E-03
   maximum displ.:     0.1795938 α      in ANC's #6, #3, #21, ...

........................................................................
.............................. CYCLE   41 ..............................
........................................................................

 iter      E             dE          RMSdq      gap      omega  full diag
   1   -154.4923586 -0.154492E+03  0.645E-02    2.30       0.0  T
   2   -154.4923620 -0.340012E-05  0.371E-02    2.30       1.0  T
   3   -154.4923599  0.211172E-05  0.648E-03    2.30       1.5  T
   4   -154.4923622 -0.230751E-05  0.390E-03    2.30       2.5  T
   5   -154.4923632 -0.989156E-06  0.121E-03    2.30       8.2  T
   6   -154.4923633 -0.548700E-07  0.652E-04    2.30      15.1  T
   7   -154.4923633 -0.213227E-07  0.313E-04    2.30      31.5  T
     SCC iter.                  ...        0 min,  0.855 sec
     gradient                   ...        0 min,  0.169 sec
 * total energy  :  -151.8274422 Eh     change       -0.9874389E-04 Eh
   gradient norm :     0.0029170 Eh/α   predicted    -0.7172336E-04 ( -27.36%)
   displ. norm   :     0.3736215 α      lambda       -0.1253069E-03
   maximum displ.:     0.1803658 α      in ANC's #6, #3, #5, ...

........................................................................
.............................. CYCLE   42 ..............................
........................................................................

 iter      E             dE          RMSdq      gap      omega  full diag
   1   -154.4903020 -0.154490E+03  0.612E-02    2.30       0.0  T
   2   -154.4903051 -0.308543E-05  0.350E-02    2.30       1.0  T
   3   -154.4903038  0.137727E-05  0.592E-03    2.30       1.7  T
   4   -154.4903050 -0.122417E-05  0.392E-03    2.30       2.5  T
   5   -154.4903061 -0.113401E-05  0.118E-03    2.30       8.3  T
   6   -154.4903062 -0.631508E-07  0.585E-04    2.30      16.9  T
   7   -154.4903062 -0.163753E-07  0.281E-04    2.30      35.1  T
     SCC iter.                  ...        0 min,  0.818 sec
     gradient                   ...        0 min,  0.137 sec
 * total energy  :  -151.8275358 Eh     change       -0.9360013E-04 Eh
   gradient norm :     0.0030474 Eh/α   predicted    -0.7140086E-04 ( -23.72%)
   displ. norm   :     0.3057225 α      lambda       -0.1325225E-03
   maximum displ.:     0.1484762 α      in ANC's #6, #20, #7, ...
 * RMSD in coord.:     0.4817160 α      energy gain  -0.1092305E-02 Eh

generating ANC from exact Hessian ...
Using Lindh-Hessian (1995)
 Shifting diagonal of input Hessian by    9.9312962886037252E-003
 Lowest  eigenvalues of input Hessian
    0.000000    0.000000    0.000000    0.000000    0.000000    0.000000
    0.010000    0.010030    0.010081    0.010134    0.010189    0.010312
    0.010398    0.010458    0.010587    0.010677    0.010731    0.010809
 Highest eigenvalues
    2.031423    2.072830    2.113355    2.122373    2.123912    2.126596


........................................................................
.............................. CYCLE   43 ..............................
........................................................................

 iter      E             dE          RMSdq      gap      omega  full diag
   1   -154.4921474 -0.154492E+03  0.466E-02    2.31       0.0  T
   2   -154.4921499 -0.246180E-05  0.255E-02    2.31       1.0  T
   3   -154.4921496  0.303537E-06  0.481E-03    2.31       2.0  T
   4   -154.4921497 -0.160554E-06  0.258E-03    2.31       3.8  T
   5   -154.4921502 -0.473711E-06  0.945E-04    2.31      10.4  T
   6   -154.4921503 -0.710122E-07  0.424E-04    2.31      23.2  T
     SCC iter.                  ...        0 min,  0.655 sec
     gradient                   ...        0 min,  0.120 sec
 * total energy  :  -151.8275729 Eh     change       -0.3705124E-04 Eh
   gradient norm :     0.0053771 Eh/α   predicted     0.0000000E+00 (-100.00%)
   displ. norm   :     0.0480823 α      lambda       -0.6928119E-04
   maximum displ.:     0.0144804 α      in ANC's #23, #14, #12, ...

........................................................................
.............................. CYCLE   44 ..............................
........................................................................

 iter      E             dE          RMSdq      gap      omega  full diag
   1   -154.4919320 -0.154492E+03  0.120E-02    2.31       0.0  T
   2   -154.4919323 -0.296404E-06  0.660E-03    2.31       1.5  T
   3   -154.4919322  0.670696E-07  0.162E-03    2.31       6.1  T
   4   -154.4919323 -0.718777E-07  0.861E-04    2.31      11.4  T
   5   -154.4919323 -0.435385E-07  0.323E-04    2.31      30.5  T
     SCC iter.                  ...        0 min,  0.495 sec
     gradient                   ...        0 min,  0.120 sec
 * total energy  :  -151.8276252 Eh     change       -0.5238921E-04 Eh
   gradient norm :     0.0021978 Eh/α   predicted    -0.3594940E-04 ( -31.38%)
   displ. norm   :     0.0949866 α      lambda       -0.6507659E-04
   maximum displ.:     0.0289474 α      in ANC's #23, #1, #38, ...

........................................................................
.............................. CYCLE   45 ..............................
........................................................................

 iter      E             dE          RMSdq      gap      omega  full diag
   1   -154.4915505 -0.154492E+03  0.181E-02    2.31       0.0  T
   2   -154.4915512 -0.755416E-06  0.101E-02    2.31       1.0  T
   3   -154.4915511  0.118236E-06  0.300E-03    2.31       3.3  T
   4   -154.4915513 -0.146328E-06  0.133E-03    2.31       7.4  T
   5   -154.4915513 -0.529908E-07  0.685E-04    2.31      14.4  T
   6   -154.4915513 -0.347711E-07  0.296E-04    2.31      33.2  T
     SCC iter.                  ...        0 min,  0.711 sec
     gradient                   ...        0 min,  0.124 sec
 * total energy  :  -151.8276664 Eh     change       -0.4115804E-04 Eh
   gradient norm :     0.0020760 Eh/α   predicted    -0.3283238E-04 ( -20.23%)
   displ. norm   :     0.1047882 α      lambda       -0.4211367E-04
   maximum displ.:     0.0307308 α      in ANC's #23, #6, #1, ...

........................................................................
.............................. CYCLE   46 ..............................
........................................................................

 iter      E             dE          RMSdq      gap      omega  full diag
   1   -154.4914518 -0.154491E+03  0.183E-02    2.31       0.0  T
   2   -154.4914521 -0.369228E-06  0.104E-02    2.31       1.0  T
   3   -154.4914518  0.279086E-06  0.230E-03    2.31       4.3  T
   4   -154.4914521 -0.300230E-06  0.100E-03    2.31       9.8  T
   5   -154.4914522 -0.567716E-07  0.468E-04    2.31      21.1  T
   6   -154.4914522 -0.991776E-08  0.201E-04    2.31      49.1  T
     SCC iter.                  ...        0 min,  0.830 sec
     gradient                   ...        0 min,  0.124 sec
 * total energy  :  -151.8276950 Eh     change       -0.2855391E-04 Eh
   gradient norm :     0.0032306 Eh/α   predicted    -0.2128948E-04 ( -25.44%)
   displ. norm   :     0.1431655 α      lambda       -0.4796001E-04
   maximum displ.:     0.0450317 α      in ANC's #6, #1, #10, ...

........................................................................
.............................. CYCLE   47 ..............................
........................................................................

 iter      E             dE          RMSdq      gap      omega  full diag
   1   -154.4914732 -0.154491E+03  0.242E-02    2.31       0.0  T
   2   -154.4914738 -0.637256E-06  0.133E-02    2.31       1.0  T
   3   -154.4914737  0.118521E-06  0.295E-03    2.31       3.3  T
   4   -154.4914738 -0.122622E-06  0.149E-03    2.31       6.6  T
   5   -154.4914739 -0.923402E-07  0.559E-04    2.31      17.6  T
   6   -154.4914739 -0.225293E-07  0.223E-04    2.31      44.2  T
     SCC iter.                  ...        0 min,  0.681 sec
     gradient                   ...        0 min,  0.152 sec
 * total energy  :  -151.8277302 Eh     change       -0.3520847E-04 Eh
   gradient norm :     0.0033936 Eh/α   predicted    -0.2447893E-04 ( -30.47%)
   displ. norm   :     0.1736525 α      lambda       -0.5303883E-04
   maximum displ.:     0.0605243 α      in ANC's #6, #1, #10, ...

........................................................................
.............................. CYCLE   48 ..............................
........................................................................

 iter      E             dE          RMSdq      gap      omega  full diag
   1   -154.4916612 -0.154492E+03  0.271E-02    2.31       0.0  T
   2   -154.4916616 -0.425869E-06  0.155E-02    2.31       1.0  T
   3   -154.4916614  0.236423E-06  0.257E-03    2.31       3.8  T
   4   -154.4916615 -0.182949E-06  0.147E-03    2.31       6.7  T
   5   -154.4916617 -0.157593E-06  0.455E-04    2.31      21.6  T
   6   -154.4916617 -0.160503E-07  0.162E-04    2.31      61.0  T
     SCC iter.                  ...        0 min,  0.741 sec
     gradient                   ...        0 min,  0.124 sec
 * total energy  :  -151.8277690 Eh     change       -0.3887612E-04 Eh
   gradient norm :     0.0024201 Eh/α   predicted    -0.2732008E-04 ( -29.73%)
   displ. norm   :     0.1964957 α      lambda       -0.5182112E-04
   maximum displ.:     0.0733912 α      in ANC's #6, #1, #10, ...

........................................................................
.............................. CYCLE   49 ..............................
........................................................................

 iter      E             dE          RMSdq      gap      omega  full diag
   1   -154.4917604 -0.154492E+03  0.332E-02    2.31       0.0  T
   2   -154.4917612 -0.788332E-06  0.184E-02    2.31       1.0  T
   3   -154.4917608  0.365697E-06  0.377E-03    2.31       2.6  T
   4   -154.4917610 -0.246312E-06  0.202E-03    2.31       4.9  T
   5   -154.4917613 -0.290043E-06  0.638E-04    2.31      15.4  T
   6   -154.4917614 -0.345272E-07  0.235E-04    2.31      41.9  T
     SCC iter.                  ...        0 min,  0.785 sec
     gradient                   ...        0 min,  0.125 sec
 * total energy  :  -151.8278091 Eh     change       -0.4005758E-04 Eh
   gradient norm :     0.0020071 Eh/α   predicted    -0.2691377E-04 ( -32.81%)
   displ. norm   :     0.2684243 α      lambda       -0.6423272E-04
   maximum displ.:     0.1057754 α      in ANC's #1, #6, #10, ...

........................................................................
.............................. CYCLE   50 ..............................
........................................................................

 iter      E             dE          RMSdq      gap      omega  full diag
   1   -154.4913298 -0.154491E+03  0.450E-02    2.31       0.0  T
   2   -154.4913308 -0.969043E-06  0.257E-02    2.31       1.0  T
   3   -154.4913302  0.573073E-06  0.381E-03    2.31       2.6  T
   4   -154.4913308 -0.562295E-06  0.201E-03    2.31       4.9  T
   5   -154.4913311 -0.304992E-06  0.644E-04    2.31      15.3  T
   6   -154.4913311 -0.299791E-07  0.292E-04    2.31      33.8  T
     SCC iter.                  ...        0 min,  0.613 sec
     gradient                   ...        0 min,  0.171 sec
 * total energy  :  -151.8278575 Eh     change       -0.4843586E-04 Eh
   gradient norm :     0.0024698 Eh/α   predicted    -0.3443454E-04 ( -28.91%)
   displ. norm   :     0.2564754 α      lambda       -0.5827181E-04
   maximum displ.:     0.1095016 α      in ANC's #1, #6, #10, ...

........................................................................
.............................. CYCLE   51 ..............................
........................................................................

 iter      E             dE          RMSdq      gap      omega  full diag
   1   -154.4910686 -0.154491E+03  0.456E-02    2.31       0.0  T
   2   -154.4910697 -0.112476E-05  0.258E-02    2.31       1.0  T
   3   -154.4910690  0.715080E-06  0.438E-03    2.31       2.2  T
   4   -154.4910698 -0.827963E-06  0.191E-03    2.31       5.1  T
   5   -154.4910700 -0.205259E-06  0.825E-04    2.31      11.9  T
   6   -154.4910701 -0.573964E-07  0.324E-04    2.31      30.4  T
     SCC iter.                  ...        0 min,  0.884 sec
     gradient                   ...        0 min,  0.124 sec
 * total energy  :  -151.8278982 Eh     change       -0.4061827E-04 Eh
   gradient norm :     0.0026778 Eh/α   predicted    -0.3105285E-04 ( -23.55%)
   displ. norm   :     0.1557139 α      lambda       -0.3438892E-04
   maximum displ.:     0.0734545 α      in ANC's #1, #6, #11, ...

........................................................................
.............................. CYCLE   52 ..............................
........................................................................

 iter      E             dE          RMSdq      gap      omega  full diag
   1   -154.4912272 -0.154491E+03  0.278E-02    2.31       0.0  T
   2   -154.4912276 -0.380702E-06  0.162E-02    2.31       1.0  T
   3   -154.4912273  0.303916E-06  0.219E-03    2.31       4.5  T
   4   -154.4912277 -0.388811E-06  0.869E-04    2.31      11.3  T
   5   -154.4912277 -0.420849E-07  0.426E-04    2.31      23.1  T
     SCC iter.                  ...        0 min,  0.551 sec
     gradient                   ...        0 min,  0.120 sec
 * total energy  :  -151.8279235 Eh     change       -0.2539186E-04 Eh
   gradient norm :     0.0020733 Eh/α   predicted    -0.1761209E-04 ( -30.64%)
   displ. norm   :     0.1466081 α      lambda       -0.3167794E-04
   maximum displ.:     0.0734462 α      in ANC's #1, #6, #11, ...

........................................................................
.............................. CYCLE   53 ..............................
........................................................................

 iter      E             dE          RMSdq      gap      omega  full diag
   1   -154.4910624 -0.154491E+03  0.248E-02    2.31       0.0  T
   2   -154.4910627 -0.296101E-06  0.145E-02    2.31       1.0  T
   3   -154.4910624  0.280527E-06  0.209E-03    2.31       4.7  T
   4   -154.4910628 -0.365361E-06  0.778E-04    2.31      12.7  T
   5   -154.4910628 -0.212482E-07  0.369E-04    2.31      26.7  T
     SCC iter.                  ...        0 min,  0.738 sec
     gradient                   ...        0 min,  0.125 sec
 * total energy  :  -151.8279473 Eh     change       -0.2379721E-04 Eh
   gradient norm :     0.0015490 Eh/α   predicted    -0.1618104E-04 ( -32.00%)
   displ. norm   :     0.1886660 α      lambda       -0.3000788E-04
   maximum displ.:     0.0944621 α      in ANC's #1, #6, #11, ...

........................................................................
.............................. CYCLE   54 ..............................
........................................................................

 iter      E             dE          RMSdq      gap      omega  full diag
   1   -154.4915169 -0.154492E+03  0.319E-02    2.31       0.0  T
   2   -154.4915175 -0.606518E-06  0.185E-02    2.31       1.0  T
   3   -154.4915166  0.902725E-06  0.378E-03    2.31       2.6  T
   4   -154.4915176 -0.100405E-05  0.136E-03    2.31       7.2  T
   5   -154.4915177 -0.850102E-07  0.611E-04    2.31      16.1  T
   6   -154.4915177 -0.324367E-07  0.223E-04    2.31      44.2  T
     SCC iter.                  ...        0 min,  0.715 sec
     gradient                   ...        0 min,  0.182 sec
 * total energy  :  -151.8279719 Eh     change       -0.2459979E-04 Eh
   gradient norm :     0.0025824 Eh/α   predicted    -0.1524208E-04 ( -38.04%)
   displ. norm   :     0.1078655 α      lambda       -0.2093538E-04
   maximum displ.:     0.0557890 α      in ANC's #1, #6, #2, ...

........................................................................
.............................. CYCLE   55 ..............................
........................................................................

 iter      E             dE          RMSdq      gap      omega  full diag
   1   -154.4904233 -0.154490E+03  0.165E-02    2.31       0.0  T
   2   -154.4904235 -0.226733E-06  0.965E-03    2.31       1.0  T
   3   -154.4904232  0.332803E-06  0.232E-03    2.31       4.2  T
   4   -154.4904236 -0.371025E-06  0.760E-04    2.31      13.0  T
   5   -154.4904236 -0.262903E-07  0.370E-04    2.31      26.6  T
     SCC iter.                  ...        0 min,  0.674 sec
     gradient                   ...        0 min,  0.124 sec
 * total energy  :  -151.8279849 Eh     change       -0.1292165E-04 Eh
   gradient norm :     0.0024556 Eh/α   predicted    -0.1059034E-04 ( -18.04%)
   displ. norm   :     0.0758708 α      lambda       -0.2347043E-04
   maximum displ.:     0.0397722 α      in ANC's #1, #12, #6, ...

........................................................................
.............................. CYCLE   56 ..............................
........................................................................

 iter      E             dE          RMSdq      gap      omega  full diag
   1   -154.4907144 -0.154491E+03  0.138E-02    2.31       0.0  T
   2   -154.4907145 -0.128646E-06  0.797E-03    2.31       1.2  T
   3   -154.4907142  0.248606E-06  0.195E-03    2.31       5.0  T
   4   -154.4907145 -0.278924E-06  0.566E-04    2.31      17.4  T
   5   -154.4907145 -0.140100E-07  0.271E-04    2.31      36.3  T
     SCC iter.                  ...        0 min,  0.784 sec
     gradient                   ...        0 min,  0.148 sec
 * total energy  :  -151.8280028 Eh     change       -0.1790655E-04 Eh
   gradient norm :     0.0013735 Eh/α   predicted    -0.1180510E-04 ( -34.07%)
   displ. norm   :     0.1696638 α      lambda       -0.2134306E-04
   maximum displ.:     0.0981006 α      in ANC's #1, #12, #6, ...

........................................................................
.............................. CYCLE   57 ..............................
........................................................................

 iter      E             dE          RMSdq      gap      omega  full diag
   1   -154.4910917 -0.154491E+03  0.262E-02    2.30       0.0  T
   2   -154.4910920 -0.294312E-06  0.151E-02    2.30       1.0  T
   3   -154.4910909  0.101081E-05  0.343E-03    2.30       2.9  T
   4   -154.4910920 -0.107137E-05  0.114E-03    2.30       8.6  T
   5   -154.4910921 -0.774364E-07  0.498E-04    2.30      19.8  T
   6   -154.4910921 -0.206468E-07  0.162E-04    2.30      60.8  T
     SCC iter.                  ...        0 min,  0.825 sec
     gradient                   ...        0 min,  0.152 sec
 * total energy  :  -151.8280220 Eh     change       -0.1919301E-04 Eh
   gradient norm :     0.0018547 Eh/α   predicted    -0.1081021E-04 ( -43.68%)
   displ. norm   :     0.1204293 α      lambda       -0.1058711E-04
   maximum displ.:     0.0715726 α      in ANC's #1, #6, #2, ...

........................................................................
.............................. CYCLE   58 ..............................
........................................................................

 iter      E             dE          RMSdq      gap      omega  full diag
   1   -154.4910612 -0.154491E+03  0.174E-02    2.30       0.0  T
   2   -154.4910613 -0.104976E-06  0.992E-03    2.30       1.0  T
   3   -154.4910609  0.400223E-06  0.220E-03    2.30       4.5  T
   4   -154.4910613 -0.395090E-06  0.914E-04    2.30      10.8  T
   5   -154.4910614 -0.603699E-07  0.340E-04    2.30      28.9  T
     SCC iter.                  ...        0 min,  0.684 sec
     gradient                   ...        0 min,  0.124 sec
 * total energy  :  -151.8280358 Eh     change       -0.1379144E-04 Eh
   gradient norm :     0.0015908 Eh/α   predicted    -0.5328863E-05 ( -61.36%)
   displ. norm   :     0.1756402 α      lambda       -0.1674203E-04
   maximum displ.:     0.1068818 α      in ANC's #1, #6, #2, ...

........................................................................
.............................. CYCLE   59 ..............................
........................................................................

 iter      E             dE          RMSdq      gap      omega  full diag
   1   -154.4911901 -0.154491E+03  0.247E-02    2.30       0.0  T
[...]
    85   1 H        0.926     0.052     2.297     2.370
    86   1 H        0.925     0.075     2.032     2.229
    87   1 H        0.924     0.057     2.232     2.336
    88   1 H        0.925     0.073     2.056     2.242
    89   1 H        0.926     0.050     2.324     2.384
    90   1 H        0.926     0.052     2.293     2.368
    91   1 H        0.926     0.047     2.359     2.402
    92   1 H        0.926     0.049     2.337     2.391
    93   1 H        0.926     0.045     2.382     2.413
    94   1 H        0.926     0.035     2.517     2.481
    95   1 H        0.926     0.036     2.505     2.475
    96   1 H        0.926     0.052     2.297     2.370
    97   1 H        0.926     0.048     2.349     2.397
    98   1 H        0.926     0.051     2.309     2.376
    99   1 H        0.926     0.048     2.343     2.394
   100   1 H        0.926     0.039     2.463     2.454
   101   1 H        0.925     0.058     2.227     2.334
   102   1 H        0.924     0.063     2.169     2.303
   103   1 H        0.924     0.055     2.260     2.351

 Mol. C6AA /au·bohr⁶  :     153659.270590
 Mol. C8AA /au·bohr⁸  :    4125257.676048
 Mol. α(0) /au        :        632.936056


Wiberg/Mayer (AO) data.
largest (>0.10) Wiberg bond orders for each atom

 ---------------------------------------------------------------------------
     #   Z sym  total        # sym  WBO       # sym  WBO       # sym  WBO
 ---------------------------------------------------------------------------
     1   6 C    3.987 --     2 C    0.999    59 H    0.979    60 H    0.978
                            61 H    0.975
     2   6 C    3.953 --     1 C    0.999     3 C    0.986    62 H    0.940
                            13 N    0.918
     3   6 C    3.984 --    12 C    1.518     4 C    1.296     2 C    0.986
     4   6 C    3.991 --     5 C    1.555     3 C    1.296    63 H    0.962
     5   6 C    3.990 --     4 C    1.555     6 C    1.281    64 H    0.967
                            12 C    0.114
     6   6 C    3.990 --     5 C    1.281     7 C    1.280    11 C    1.248
     7   6 C    3.991 --     8 C    1.558     6 C    1.280    65 H    0.968
                            10 C    0.118
     8   6 C    3.989 --     7 C    1.558     9 C    1.319    66 H    0.970
     9   6 C    3.991 --    10 C    1.559     8 C    1.319    67 H    0.970
    10   6 C    3.990 --     9 C    1.559    11 C    1.276    68 H    0.968
                             7 C    0.118
    11   6 C    3.990 --    12 C    1.286    10 C    1.276     6 C    1.248
    12   6 C    3.990 --     3 C    1.518    11 C    1.286    69 H    0.964
                             5 C    0.114
    13   7 N    3.386 --    26 P    1.239    14 C    0.937     2 C    0.918
    14   6 C    3.958 --    15 C    1.005    16 C    0.987    70 H    0.940
                            13 N    0.937
    15   6 C    3.991 --    14 C    1.005    72 H    0.979    73 H    0.978
                            71 H    0.967
    16   6 C    3.984 --    25 C    1.502    17 C    1.284    14 C    0.987
    17   6 C    3.991 --    18 C    1.568    16 C    1.284    74 H    0.957
    18   6 C    3.991 --    17 C    1.568    19 C    1.272    75 H    0.967
                            25 C    0.107
    19   6 C    3.989 --    20 C    1.284    18 C    1.272    24 C    1.250
    20   6 C    3.990 --    21 C    1.553    19 C    1.284    76 H    0.968
                            23 C    0.117
    21   6 C    3.986 --    20 C    1.553    22 C    1.323    77 H    0.970
    22   6 C    3.990 --    23 C    1.555    21 C    1.323    78 H    0.970
    23   6 C    3.988 --    22 C    1.555    24 C    1.280    79 H    0.968
                            20 C    0.117
    24   6 C    3.990 --    23 C    1.280    25 C    1.278    19 C    1.250
    25   6 C    3.988 --    16 C    1.502    24 C    1.278    80 H    0.962
                            18 C    0.107
    26  15 P    5.132 --    13 N    1.239    35 N    1.216    57 N    1.182
                            27 S    1.026
    27  16 S    2.489 --    28 S    1.126    26 P    1.026
    28  16 S    2.329 --    27 S    1.126    29 C    0.978
    29   6 C    3.955 --    30 C    1.406    34 C    1.405    28 S    0.978
                            32 C    0.103
    30   6 C    3.989 --    31 C    1.438    29 C    1.406    81 H    0.964
                            33 C    0.109
    31   6 C    3.991 --    32 C    1.439    30 C    1.438    82 H    0.968
                            34 C    0.110
    32   6 C    3.981 --    31 C    1.439    33 C    1.433    83 H    0.969
                            29 C    0.103
    33   6 C    3.990 --    34 C    1.444    32 C    1.433    84 H    0.968
                            30 C    0.109
    34   6 C    3.989 --    33 C    1.444    29 C    1.405    85 H    0.967
                            31 C    0.110
    35   7 N    3.438 --    26 P    1.216    37 C    0.992    36 C    0.968
    36   6 C    3.958 --    86 H    0.976    87 H    0.971    35 N    0.968
                            88 H    0.957
    37   6 C    3.949 --    46 C    1.453    38 C    1.280    35 N    0.992
    38   6 C    3.988 --    39 C    1.560    37 C    1.280    89 H    0.962
    39   6 C    3.984 --    38 C    1.560    40 C    1.270    90 H    0.966
                            46 C    0.105
    40   6 C    3.988 --    41 C    1.281    39 C    1.270    45 C    1.254
    41   6 C    3.988 --    42 C    1.553    40 C    1.281    91 H    0.967
                            44 C    0.117
    42   6 C    3.985 --    41 C    1.553    43 C    1.324    92 H    0.970
    43   6 C    3.990 --    44 C    1.551    42 C    1.324    93 H    0.970
    44   6 C    3.989 --    43 C    1.551    45 C    1.285    94 H    0.965
                            41 C    0.117
    45   6 C    3.987 --    44 C    1.285    40 C    1.254    46 C    1.231
    46   6 C    3.985 --    37 C    1.453    45 C    1.231    47 C    1.030
                            39 C    0.105
    47   6 C    3.986 --    48 C    1.446    56 C    1.235    46 C    1.030
                            50 C    0.106
    48   6 C    3.952 --    47 C    1.446    49 C    1.287    57 N    0.962
    49   6 C    3.986 --    50 C    1.553    48 C    1.287    95 H    0.961
    50   6 C    3.985 --    49 C    1.553    51 C    1.274    96 H    0.966
                            47 C    0.106
    51   6 C    3.988 --    52 C    1.281    50 C    1.274    56 C    1.252
    52   6 C    3.988 --    53 C    1.554    51 C    1.281    97 H    0.967
                            55 C    0.117
    53   6 C    3.986 --    52 C    1.554    54 C    1.323    98 H    0.969
    54   6 C    3.989 --    55 C    1.552    53 C    1.323    99 H    0.970
    55   6 C    3.988 --    54 C    1.552    56 C    1.285   100 H    0.966
                            52 C    0.117
    56   6 C    3.987 --    55 C    1.285    51 C    1.252    47 C    1.235
    57   7 N    3.388 --    26 P    1.182    58 C    0.976    48 C    0.962
    58   6 C    3.962 --   102 H    0.977    57 N    0.976   103 H    0.974
                           101 H    0.966
    59   1 H    0.995 --     1 C    0.979
    60   1 H    0.997 --     1 C    0.978
    61   1 H    0.997 --     1 C    0.975
    62   1 H    0.997 --     2 C    0.940
    63   1 H    0.998 --     4 C    0.962
    64   1 H    0.997 --     5 C    0.967
    65   1 H    0.998 --     7 C    0.968
    66   1 H    0.997 --     8 C    0.970
    67   1 H    0.998 --     9 C    0.970
    68   1 H    0.998 --    10 C    0.968
    69   1 H    0.999 --    12 C    0.964
    70   1 H    0.993 --    14 C    0.940
    71   1 H    0.998 --    15 C    0.967
    72   1 H    0.996 --    15 C    0.979
    73   1 H    0.997 --    15 C    0.978
    74   1 H    0.999 --    17 C    0.957
    75   1 H    0.997 --    18 C    0.967
    76   1 H    0.998 --    20 C    0.968
    77   1 H    0.997 --    21 C    0.970
    78   1 H    0.997 --    22 C    0.970
    79   1 H    0.998 --    23 C    0.968
    80   1 H    0.998 --    25 C    0.962
    81   1 H    0.998 --    30 C    0.964
    82   1 H    0.997 --    31 C    0.968
    83   1 H    0.996 --    32 C    0.969
    84   1 H    0.997 --    33 C    0.968
    85   1 H    0.997 --    34 C    0.967
    86   1 H    0.994 --    36 C    0.976
    87   1 H    0.996 --    36 C    0.971
    88   1 H    0.994 --    36 C    0.957
    89   1 H    0.997 --    38 C    0.962
    90   1 H    0.996 --    39 C    0.966
    91   1 H    0.997 --    41 C    0.967
    92   1 H    0.997 --    42 C    0.970
    93   1 H    0.997 --    43 C    0.970
    94   1 H    0.998 --    44 C    0.965
    95   1 H    0.997 --    49 C    0.961
    96   1 H    0.996 --    50 C    0.966
    97   1 H    0.997 --    52 C    0.967
    98   1 H    0.997 --    53 C    0.969
    99   1 H    0.997 --    54 C    0.970
   100   1 H    0.998 --    55 C    0.966
   101   1 H    0.996 --    58 C    0.966
   102   1 H    0.996 --    58 C    0.977
   103   1 H    0.997 --    58 C    0.974
 ---------------------------------------------------------------------------

Topologies differ in total number of bonds
Writing topology from bond orders to xtbtopo.mol

molecular dipole:
                 x           y           z       tot (Debye)
 q only:       -0.729       0.637       0.160
   full:       -0.885       0.918       0.027       3.241
molecular quadrupole (traceless):
                xx          xy          yy          xz          yz          zz
 q only:       13.858       1.456      -6.942      -1.777      16.163      -6.916
  q+dip:       13.138      -0.241      -0.067       1.471      16.272     -13.071
   full:       12.838       0.255      -4.472      -2.505      15.522      -8.366

           -------------------------------------------------
          |                Geometry Summary                 |
           -------------------------------------------------

      molecular mass/u    :      807.0390470
   center of mass at/Å    :       -0.0171332      -0.0380614       0.2044064
  moments of inertia/u·Å² :        0.9528773E+04   0.1120577E+05   0.1603736E+05
rotational constants/cm⁻¹ :        0.1769129E-02   0.1504370E-02   0.1051147E-02

 * 108 selected distances

     #   Z          #   Z                                           value/Å
     1   6 C        2   6 C                                       1.5264690
     3   6 C        4   6 C                                       1.4098781
     4   6 C        5   6 C                                       1.3667130
     5   6 C        6   6 C                                       1.4094134
     6   6 C        7   6 C                                       1.4101401
     7   6 C        8   6 C                                       1.3668139
     8   6 C        9   6 C                                       1.4045130
     9   6 C       10   6 C                                       1.3665431
     6   6 C       11   6 C                                       1.4193903
    10   6 C       11   6 C                                       1.4107578
     3   6 C       12   6 C                                       1.3727145
    11   6 C       12   6 C                                       1.4084464
     2   6 C       13   7 N                                       1.4860841
    13   7 N       14   6 C                                       1.4735596
    14   6 C       15   6 C                                       1.5254018
    16   6 C       17   6 C                                       1.4122132
    17   6 C       18   6 C                                       1.3639265
    18   6 C       19   6 C                                       1.4105558
    19   6 C       20   6 C                                       1.4091312
    20   6 C       21   6 C                                       1.3674492
    21   6 C       22   6 C                                       1.4037509
    22   6 C       23   6 C                                       1.3671452
    19   6 C       24   6 C                                       1.4183899
    23   6 C       24   6 C                                       1.4101158
    16   6 C       25   6 C                                       1.3737871
    24   6 C       25   6 C                                       1.4101829
    13   7 N       26  15 P                                       1.6539184
    26  15 P       27  16 S                                       2.1137425 (max)
    27  16 S       28  16 S                                       2.0620808
    29   6 C       30   6 C                                       1.3855526
    30   6 C       31   6 C                                       1.3842308
    31   6 C       32   6 C                                       1.3856610
    32   6 C       33   6 C                                       1.3864586
    29   6 C       34   6 C                                       1.3861058
    33   6 C       34   6 C                                       1.3834733
    26  15 P       35   7 N                                       1.6595898
    35   7 N       36   6 C                                       1.4605894
    35   7 N       37   6 C                                       1.4259933
    37   6 C       38   6 C                                       1.4094619
    38   6 C       39   6 C                                       1.3639475
    39   6 C       40   6 C                                       1.4100815
    40   6 C       41   6 C                                       1.4098120
    41   6 C       42   6 C                                       1.3665373
    42   6 C       43   6 C                                       1.4026504
    43   6 C       44   6 C                                       1.3676190
    40   6 C       45   6 C                                       1.4191234
    44   6 C       45   6 C                                       1.4115747
    37   6 C       46   6 C                                       1.3790662
    45   6 C       46   6 C                                       1.4257058
    47   6 C       48   6 C                                       1.3773424
    48   6 C       49   6 C                                       1.4057593
    49   6 C       50   6 C                                       1.3655618
    50   6 C       51   6 C                                       1.4104514
    51   6 C       52   6 C                                       1.4101054
    52   6 C       53   6 C                                       1.3667131
    53   6 C       54   6 C                                       1.4031423
    54   6 C       55   6 C                                       1.3673338
    47   6 C       56   6 C                                       1.4229355
    51   6 C       56   6 C                                       1.4202578
    55   6 C       56   6 C                                       1.4110280
    26  15 P       57   7 N                                       1.6710925
    48   6 C       57   7 N                                       1.4323590
    57   7 N       58   6 C                                       1.4533508
     1   6 C       59   1 H                                       1.0876758
     1   6 C       60   1 H                                       1.0858287
     1   6 C       61   1 H                                       1.0859879
     2   6 C       62   1 H                                       1.0961672
     4   6 C       63   1 H                                       1.0793135
     5   6 C       64   1 H                                       1.0800017
     7   6 C       65   1 H                                       1.0800142
     8   6 C       66   1 H                                       1.0793183
     9   6 C       67   1 H                                       1.0795237
    10   6 C       68   1 H                                       1.0808321
    12   6 C       69   1 H                                       1.0823005
    14   6 C       70   1 H                                       1.0928422
    15   6 C       71   1 H                                       1.0896484
    15   6 C       72   1 H                                       1.0867191
    15   6 C       73   1 H                                       1.0869777
    17   6 C       74   1 H                                       1.0802593
    18   6 C       75   1 H                                       1.0802212
    20   6 C       76   1 H                                       1.0801425
    21   6 C       77   1 H                                       1.0793865
    22   6 C       78   1 H                                       1.0794939
    23   6 C       79   1 H                                       1.0804636
    25   6 C       80   1 H                                       1.0783038
    30   6 C       81   1 H                                       1.0782287
    31   6 C       82   1 H                                       1.0792565
    32   6 C       83   1 H                                       1.0789446
    33   6 C       84   1 H                                       1.0789262
    34   6 C       85   1 H                                       1.0801759
    36   6 C       86   1 H                                       1.0886914
    36   6 C       87   1 H                                       1.0934764
    36   6 C       88   1 H                                       1.0875759
    38   6 C       89   1 H                                       1.0766260 (min)
    39   6 C       90   1 H                                       1.0792563
    41   6 C       91   1 H                                       1.0798016
    42   6 C       92   1 H                                       1.0790105
    43   6 C       93   1 H                                       1.0793716
    44   6 C       94   1 H                                       1.0790945
    49   6 C       95   1 H                                       1.0795612
    50   6 C       96   1 H                                       1.0795139
    52   6 C       97   1 H                                       1.0798093
    53   6 C       98   1 H                                       1.0790038
    54   6 C       99   1 H                                       1.0792351
    55   6 C      100   1 H                                       1.0794617
    58   6 C      101   1 H                                       1.0884636
    58   6 C      102   1 H                                       1.0911535
    58   6 C      103   1 H                                       1.0916057

 * 6 distinct bonds (by element types)

   Z      Z             #   av. dist./Å        max./Å        min./Å
   1 H    6 C          45     1.0826148     1.0961672     1.0766260
   6 C    6 C          52     1.3996449     1.5264690     1.3639265
   6 C    7 N           6     1.4553227     1.4860841     1.4259933
   7 N   15 P           3     1.6615336     1.6710925     1.6539184
  15 P   16 S           1     2.1137425     2.1137425     2.1137425
  16 S   16 S           1     2.0620808     2.0620808     2.0620808


optimized geometry written to: xtbopt.xyz


           -------------------------------------------------
          | TOTAL ENERGY             -151.828248096323 Eh   |
          | GRADIENT NORM               0.000039107390 Eh/α |
          | HOMO-LUMO GAP               2.289391778383 eV   |
           -------------------------------------------------

------------------------------------------------------------------------
 * finished run on 2024/12/16 at 17:54:28.167     
------------------------------------------------------------------------
 total:
 * wall-time:     0 d,  0 h,  2 min,  0.038 sec
 *  cpu-time:     0 d,  0 h, 15 min, 38.219 sec
 * ratio c/w:     7.816 speedup
 SCF:
 * wall-time:     0 d,  0 h,  0 min,  2.033 sec
 *  cpu-time:     0 d,  0 h,  0 min, 15.867 sec
 * ratio c/w:     7.806 speedup
 ANC optimizer:
 * wall-time:     0 d,  0 h,  1 min, 57.696 sec
 *  cpu-time:     0 d,  0 h, 15 min, 20.763 sec
 * ratio c/w:     7.823 speedup

