103
 energy: -151.828248096323 gnorm: 0.000039107390 xtb: 6.7.1 (edcfbbe)
C            0.97510893674220        1.53218474434256       -3.23872668274098
C            1.06190231390967        0.54010538606277       -2.08185471957434
C            2.14283413897603       -0.48485128240901       -2.34398138964980
C            3.49206998321080       -0.11969436114947       -2.52831484141191
C            4.44711148770992       -1.06797513871421       -2.76614542637337
C            4.11267379686892       -2.43465314289657       -2.84853654739514
C            5.07599651646995       -3.43496924694666       -3.09322364415340
C            4.70639241972366       -4.74783546039734       -3.18241442212560
C            3.36041662908704       -5.11962642920731       -3.03149361776403
C            2.40375847023890       -4.17356465686552       -2.79230325185340
C            2.75262507712220       -2.81017179718898       -2.69387005558948
C            1.79428062189114       -1.80883126394675       -2.44364216023142
N            1.19577053771488        1.18143873989706       -0.74798205537262
C            2.04696556050032        2.37042238996253       -0.56587676975273
C            1.19974232387104        3.63836721963718       -0.52874130361032
C            2.93996521874895        2.19771215821797        0.64420096995303
C            3.73547225183599        1.03319330882418        0.71775468167005
C            4.55422378835484        0.80343821595822        1.78412873587239
C            4.64574000675505        1.73279539306116        2.84128872106364
C            5.47834902466907        1.52681390639187        3.95931566545944
C            5.55159650361669        2.46351941393363        4.95286218583301
C            4.79713594147900        3.64453510551210        4.87219309215489
C            3.97990325575429        3.87168776598212        3.79999067776523
C            3.88153338352605        2.92491450841134        2.75962062061178
C            3.03972687512108        3.13114681563267        1.64721541372569
P            0.07834723753122        0.77579224588281        0.40191434632891
S            0.72927534725387        1.39751093723563        2.31441657678711
S           -0.39674886567864        0.10995230001381        3.46612785084503
C           -1.91645016399154        1.00404457693378        3.75006430096992
C           -3.10970402800238        0.42338876240910        3.35164287038114
C           -4.29632222552277        1.09577572325058        3.58813276395162
C           -4.28232851095757        2.33485521572622        4.20824739544051
C           -3.08152828205437        2.90468108902851        4.60276538862288
C           -1.88985013913436        2.23755795382408        4.38174939439494
N           -0.04436228260215       -0.87864823817297        0.35711736249790
C            1.19625968136103       -1.57626595188201        0.68500077956453
C           -1.26482929671340       -1.53511597605681        0.69322281038250
C           -1.29116931530591       -2.49142490517935        1.72828901405595
C           -2.45046648566693       -3.13242205117210        2.05310454869153
C           -3.66005492574071       -2.82087772704371        1.39876100962877
C           -4.88020929274331       -3.41790717782400        1.77605237491071
C           -6.04674044851892       -3.07339624229471        1.15320325387894
C           -6.03872697447120       -2.10773618567740        0.13592044803272
C           -4.86918974503605       -1.51958725256015       -0.25986359644284
C           -3.64306240776339       -1.87011560319273        0.34535065318355
C           -2.40486841189807       -1.27663246317089       -0.03843312183361
C           -2.38601996513279       -0.38650567678812       -1.21272197838485
C           -2.02747057184115        0.93514773451979       -1.06525539300949
C           -2.18646730426905        1.85109694000522       -2.11972959542912
C           -2.64803598257284        1.42363141098517       -3.33174700816231
C           -2.91699451591947        0.05841205517962       -3.56242025233303
C           -3.31971220731479       -0.41092046089862       -4.82967809172552
C           -3.55928347211683       -1.74031906622262       -5.03754657781470
C           -3.39830389331171       -2.65779158363160       -3.98819548015777
C           -3.02087564578037       -2.23358891507079       -2.74432999303047
C           -2.78325572842863       -0.86574025882281       -2.49228560597862
N           -1.48318767841671        1.33485357028925        0.19793234526931
C           -2.01657334637653        2.54475790668249        0.80113986773325
H            0.77756569907319        0.96893533561507       -4.14799299288160
H            1.89977617427463        2.08275582893060       -3.38324551062032
H            0.15932080959449        2.23414012586063       -3.09340647156196
H            0.11036771563897       -0.00284542485819       -2.04485983605344
H            3.78301400573923        0.91909042948350       -2.49374289915090
H            5.47782115208384       -0.77579017141232       -2.90278031616409
H            6.10921416943845       -3.14364725518118       -3.21164321717914
H            5.44654045334143       -5.51012629971182       -3.37220706049464
H            3.08857357510340       -6.16155947076392       -3.10796635776859
H            1.36618837776064       -4.45408042086858       -2.67847407395237
H            0.75867085680965       -2.10399104582637       -2.33516540654667
H            2.69658244906565        2.41475942476049       -1.44356467201819
H            0.57007719218145        3.64453344308928        0.36053776791081
H            1.83687677624315        4.51867226601702       -0.51974946589000
H            0.56699538296894        3.69007035384849       -1.41105550199071
H            3.70295310905235        0.32424249800541       -0.09667221670205
H            5.15408796562477       -0.09397513579308        1.82523759603486
H            6.05924671263899        0.61785050550242        4.01455093096609
H            6.19262675154847        2.30311199346889        5.80634020701851
H            4.86986074153227        4.37347034011933        5.66508114484531
H            3.39908641243535        4.78035792850570        3.73387188809402
H            2.47678121070305        4.05038167179926        1.61826279167686
H           -3.10686474965163       -0.54261223257754        2.87267432328439
H           -5.22992827756052        0.64726002466032        3.28480503574639
H           -5.20910691034860        2.85624904897064        4.39087161418448
H           -3.07167445063225        3.86537669444933        5.09373219753620
H           -0.94766081656430        2.66602107502972        4.69074508645344
H            1.13167117617472       -2.60136826904382        0.32410973795533
H            1.40430641460720       -1.58188369752597        1.75848825904173
H            2.02246923552620       -1.08052905213337        0.18057661047497
H           -0.39322732601532       -2.71543986506080        2.27841701852224
H           -2.45734149987488       -3.87055295440400        2.84044784938901
H           -4.87284629444903       -4.14594679754325        2.57347031144960
H           -6.97892377260738       -3.53174103237358        1.44512408304255
H           -6.96846096381339       -1.82580376935224       -0.33434714044827
H           -4.88216680545591       -0.76851826681729       -1.03457111624734
H           -1.95783481294916        2.89425912060378       -1.96164076704044
H           -2.79087024841174        2.12618292511204       -4.13882179571025
H           -3.42830829718469        0.30167120423749       -5.63367310570936
H           -3.86651998306309       -2.09379475738812       -6.00961116416484
H           -3.57397258909077       -3.70692679345573       -4.17041493803706
H           -2.89311903752370       -2.94527633352022       -1.94282097978224
H           -1.48484304802705        2.76158051655933        1.72580388298328
H           -3.06759157377489        2.37376269200297        1.03933549627464
H           -1.94179727903021        3.41510762041351        0.14653863539167
