96
 energy: -147.204046899083 gnorm: 0.000012127730 xtb: 6.7.1 (edcfbbe)
C            6.50936518341421        3.34367028228118        4.24590591699224
O            5.12025401202619        3.17445819712850        4.06120237620299
C            4.67209699631308        2.66913974875102        2.89423819254395
C            5.47115817874558        2.26350984179989        1.82708989683973
C            4.89125223177361        1.76375367342544        0.67803613211869
C            3.50840556319436        1.63890736282333        0.54614867384376
C            2.98175916660139        1.08547828935558       -0.71510787210831
C            3.52525941051063        1.52463980655860       -1.92330507508905
C            3.15098639133561        0.97856518681561       -3.13975321390308
C            2.28602622990624       -0.09567524779910       -3.15358747944899
C            1.74911605070309       -0.58373463452979       -1.95946196832117
C            2.03474851375581        0.05287159873188       -0.76900782904848
O            1.33669387169382       -0.33117249616446        0.39904935471936
P           -0.09982200189411        0.29508398349997        0.58646956388141
Se          -0.10056595629652        2.45726045960478       -0.17879653722891
S           -1.89757544703039        2.55164646999300       -1.35185317936674
C           -1.35584994295233        2.06882751664172       -2.98392723474394
C           -2.18981312972218        1.24799833680203       -3.72850663222021
C           -1.83997192450529        0.90459499584748       -5.02172055968920
C           -0.65559471162183        1.39657378938496       -5.54333627290698
F           -0.30123592867388        1.05661917099223       -6.79179117347109
C            0.18463095225275        2.21863561809869       -4.80951106894544
C           -0.17488242804456        2.55904089729393       -3.52063579566384
N           -0.53737256840854       -0.19547564718517        2.09099953006158
C            0.22573899743659       -1.19332519488250        2.87382487397037
C            0.25194541307958       -2.54369348388758        2.17020986567966
C            1.63136130391698       -0.75418979192768        3.27508560603856
C           -1.54491684617711        0.55304143253256        2.86691378847245
C           -2.47370145408276        1.38012582272795        1.98960764166377
C           -0.89749067448906        1.46027289228818        3.91064484842604
O           -1.03135240100672       -0.26772730311556       -0.58525305763062
C           -1.14929419112398       -1.66352850567819       -0.76451606120847
C           -2.24553437388901       -2.33985276904778       -0.21948134352119
C           -3.37925707839979       -1.60989757006647        0.36714387504289
C           -4.02758952646577       -0.62284328355151       -0.36676224310904
C           -5.13064990406313        0.04174056997497        0.13805035245017
C           -5.60057748919653       -0.26473869965933        1.41295267765792
O           -6.65168191082432        0.33006506477966        2.01958562319264
C           -7.38922873073140        1.30307798644891        1.31402935692926
C           -4.95039685184290       -1.25691965766863        2.15486288813681
C           -3.86605743182237       -1.92572604037839        1.63498976615627
C           -2.26522445151122       -3.73095464129489       -0.27566420557939
C           -1.21446299916927       -4.44452070400341       -0.82735003861840
C           -0.16478096472047       -3.75482958930076       -1.39782009613535
C           -0.14312884573562       -2.35710045984940       -1.40475734186904
C            1.02114355601134       -1.87351463024591       -2.22637863882428
C            0.61694747855972       -1.68252175718008       -3.70904945974357
C            1.78003521049667       -0.89004437422959       -4.31800012275639
C            1.99485375386924       -3.07299632646389       -2.09254501756369
C            1.08083255274052       -4.30245795652711       -2.02418268511572
C            2.72245411128450        2.03672286705864        1.62453657737853
C            3.28501388562935        2.54801392861697        2.77152902672513
H            7.03799822834388        2.38711494506819        4.20046981953237
H            6.62209815130732        3.77050270578270        5.24052674076742
H            6.92952730197814        4.03182885465549        3.50702455619281
H            6.54542181381356        2.33359456864637        1.88157314260657
H            5.52991266766772        1.44153346410996       -0.13050341120735
H            4.23497716077885        2.33656974923002       -1.89919414518364
H            3.55554656321015        1.37075969714762       -4.05966212008756
H           -3.11359868353008        0.88993872473770       -3.30255028016766
H           -2.47071544375063        0.27017115288100       -5.62348019312460
H            1.09377772203373        2.59317893774520       -5.25120744945203
H            0.46234480868827        3.20919293637776       -2.93612356381474
H           -0.36278429124515       -1.31223932516248        3.78931207768646
H            0.69353684956636       -3.28216550330884        2.83443137018194
H            0.84536633384420       -2.50695950391399        1.26148852739202
H           -0.75479665350447       -2.86497804283764        1.91686276599288
H            1.99684818603193       -1.42258772376329        4.05086448972788
H            1.63573723742997        0.25754263479985        3.66743156930620
H            2.31891506459679       -0.80118024543710        2.43721564981247
H           -2.14815426347100       -0.21142140352456        3.37170173844344
H           -2.69611932838977        0.87424711289094        1.05358664983938
H           -3.41547511336578        1.52666125966110        2.51283491242285
H           -2.05507938592959        2.36456053716287        1.78771830920684
H           -1.67320943223001        2.02324144946752        4.42267985549620
H           -0.34498989130276        0.89520901504278        4.65525723342231
H           -0.22307065262860        2.16555955042256        3.42670317298317
H           -3.67402683447895       -0.38699257832530       -1.35972304931266
H           -5.61432653029822        0.79103771398654       -0.46758335951796
H           -7.82763343512695        0.88866953313943        0.40170562785842
H           -8.18632324064062        1.61147755390395        1.98762042354701
H           -6.77122824113239        2.17084616959956        1.06303011836288
H           -5.33141314012698       -1.48973348575364        3.13631009959212
H           -3.38269591071814       -2.69721455062031        2.21653955505774
H           -3.11633215477596       -4.24999694607952        0.13713338215803
H           -1.22192422465884       -5.52308393278709       -0.81822288114331
H            0.44037917191571       -2.63024981948282       -4.21099585984341
H           -0.30080068585584       -1.09165737238930       -3.75652902194130
H            1.47121231024801       -0.26189441095310       -5.15121059138213
H            2.56352166847424       -1.55587444424541       -4.68667381293046
H            2.55639632709095       -2.97533912229814       -1.16091802412385
H            2.70541007102265       -3.11788914000468       -2.91363160291454
H            1.51223327395152       -5.11141168035629       -1.43557124225994
H            0.86713349197036       -4.69656859374045       -3.01995252268061
H            1.63996888759021        1.96718479892504        1.57483001468611
H            2.67236839560057        2.87192073333329        3.59783012719959
