96
 energy: -146.441982139726 gnorm: 2.188270571644 xtb: 6.7.1 (edcfbbe)
C            6.33200000000000        3.00226600000000        3.68039400000000
O            5.21185100000000        3.28524700000000        2.85236600000000
C            4.74445400000000        2.35779500000000        1.92887000000000
C            5.33623900000000        1.12555100000000        1.76681000000000
C            4.84898600000000        0.21230200000000        0.83386900000000
C            3.73697800000000        0.54276900000000        0.04066100000000
C            3.33646900000000       -0.46354600000000       -0.91831100000000
C            4.32304300000000       -0.81712200000000       -1.84442600000000
C            4.07369700000000       -1.75626800000000       -2.80469200000000
C            2.84876500000000       -2.34393400000000       -2.83976400000000
C            1.80573900000000       -2.04182300000000       -1.92340000000000
C            2.07605900000000       -1.06193000000000       -0.94784500000000
O            1.31905900000000       -0.49854300000000        0.06333600000000
P           -0.30243700000000        0.05140000000000        0.25175800000000
Se          -0.53236500000000        1.73989200000000       -0.79140000000000
S           -0.18438600000000        2.32501200000000       -2.13734700000000
C            0.09330900000000        4.09564100000000       -2.37251700000000
C            0.40490900000000        4.57373100000000       -3.61923600000000
C            0.61379000000000        5.93360600000000       -3.78271300000000
C            0.50522200000000        6.77333000000000       -2.69743000000000
F            0.71112300000000        8.09833500000000       -2.86906300000000
C            0.19313900000000        6.31606400000000       -1.43478300000000
C           -0.01668700000000        4.95131300000000       -1.26995000000000
N           -0.64854100000000        0.36356200000000        1.86099800000000
C            0.03838400000000       -0.25322800000000        2.88960500000000
C           -0.76765300000000       -1.13275600000000        3.84122800000000
C            1.34122400000000       -0.95002000000000        2.58761900000000
C           -1.60508400000000        1.29300100000000        2.26599900000000
C           -2.42903900000000        1.97986600000000        1.23373900000000
C           -0.85249100000000        2.41628600000000        3.01688400000000
O           -1.42197100000000       -0.99180800000000       -0.57420900000000
C           -1.44781900000000       -2.31534400000000       -0.95907000000000
C           -2.68991000000000       -2.81771200000000       -0.57863800000000
C           -3.72074500000000       -2.01862400000000        0.06171900000000
C           -4.96031400000000       -1.99191000000000       -0.59361800000000
C           -6.02498800000000       -1.28688800000000       -0.07138000000000
C           -5.88058000000000       -0.59490800000000        1.11083600000000
O           -6.90355800000000        0.13638900000000        1.69792000000000
C           -8.18902800000000        0.20871100000000        1.09009600000000
C           -4.65229400000000       -0.60862900000000        1.78130100000000
C           -3.61989600000000       -1.33043700000000        1.21501100000000
C           -3.00753500000000       -4.13698200000000       -0.81728600000000
C           -2.10905800000000       -4.94587600000000       -1.42062000000000
C           -0.89866500000000       -4.45578000000000       -1.79229900000000
C           -0.49828700000000       -3.10858300000000       -1.59030700000000
C            0.78580000000000       -3.01900500000000       -2.22792900000000
C            0.78748000000000       -2.96018700000000       -3.74668500000000
C            2.29763400000000       -3.22315600000000       -3.93433400000000
C            1.38804200000000       -4.40558700000000       -1.84056600000000
C            0.26112700000000       -5.27092100000000       -2.33054900000000
C            3.18591000000000        1.76714600000000        0.23313600000000
C            3.64940500000000        2.70190900000000        1.15760000000000
H            6.07536800000000        2.27390400000000        4.47745000000000
H            6.72250300000000        3.95339400000000        4.08924500000000
H            7.10047800000000        2.52829600000000        3.03686000000000
H            6.19325700000000        0.83025700000000        2.35618000000000
H            5.34722200000000       -0.74136700000000        0.74480900000000
H            5.29971300000000       -0.36381300000000       -1.82799900000000
H            4.84832900000000       -2.01182100000000       -3.51139300000000
H            0.47236400000000        3.85709800000000       -4.42001600000000
H            0.85948400000000        6.30544900000000       -4.76722300000000
H            0.10708300000000        6.98362800000000       -0.57418700000000
H           -0.26596200000000        4.56454100000000       -0.27770700000000
H            0.37685000000000        0.60133600000000        3.59944400000000
H           -0.37316700000000       -1.09325300000000        4.87607400000000
H           -0.82070100000000       -2.16565700000000        3.44279300000000
H           -1.79987400000000       -0.77237000000000        3.88706800000000
H            1.75607600000000       -1.42259800000000        3.52978100000000
H            2.07078300000000       -0.23296000000000        2.18813000000000
H            1.20426700000000       -1.79021600000000        1.89499800000000
H           -2.31076400000000        0.90097900000000        3.04518500000000
H           -2.78875400000000        1.36787400000000        0.40672500000000
H           -3.39006600000000        2.31578200000000        1.75137600000000
H           -1.96239800000000        2.94808300000000        0.95793200000000
H           -1.34792800000000        3.39435100000000        2.86079400000000
H           -0.83455400000000        2.21902600000000        4.11104900000000
H            0.20225800000000        2.49129700000000        2.63531400000000
H           -5.12865800000000       -2.51574600000000       -1.52099300000000
H           -6.98761500000000       -1.25718600000000       -0.56449100000000
H           -8.58918400000000       -0.81920800000000        0.94874500000000
H           -8.84855600000000        0.80615300000000        1.74959100000000
H           -8.13120500000000        0.67734600000000        0.09743600000000
H           -4.51491500000000       -0.06692500000000        2.72075400000000
H           -2.69241300000000       -1.34794800000000        1.74823000000000
H           -3.95707800000000       -4.52440300000000       -0.52945100000000
H           -2.39002400000000       -5.99068000000000       -1.59488200000000
H            0.14686400000000       -3.63106900000000       -4.25693900000000
H            0.61574600000000       -1.87153600000000       -3.98108500000000
H            2.53674100000000       -2.69915400000000       -4.90705400000000
H            2.56651400000000       -4.24661000000000       -3.93375100000000
H            1.38514300000000       -4.46253600000000       -0.70944900000000
H            2.36385000000000       -4.53575600000000       -2.17519700000000
H            0.28058500000000       -6.28124800000000       -1.83286200000000
H            0.19736200000000       -5.33787300000000       -3.39761200000000
H            2.35621800000000        2.06227100000000       -0.35938200000000
H            3.16225500000000        3.65125200000000        1.25431500000000
96
 energy: -146.934489945377 gnorm: 0.328905715947 xtb: 6.7.1 (edcfbbe)
C            6.33230749120469        2.99917636779376        3.67630438366971
O            5.20940372466322        3.28605666676263        2.85208569867277
C            4.74782394155022        2.36128513222455        1.93405802953985
C            5.33744957817336        1.12141900594456        1.76601284497833
C            4.85087351273141        0.21450680235914        0.83630445615212
C            3.74244733945902        0.54007046969925        0.04597863848201
C            3.34037153618985       -0.46305216142959       -0.92413083159090
C            4.32436141981507       -0.81730242765397       -1.84259950627267
C            4.07564050436266       -1.75758505711715       -2.80691325950291
C            2.84657112534323       -2.34265245523929       -2.84120852985713
C            1.81639233504610       -2.03453696526844       -1.91869457254728
C            2.07756231047949       -1.06164548059331       -0.95120275226234
O            1.31111264076372       -0.50663329262271        0.06465843425270
P           -0.28841614066278        0.01045966235384        0.26550569354085
Se          -0.60895572717490        1.69051972392482       -0.59324288355479
S           -0.12921494175108        2.39006976340611       -2.36290457041196
C            0.10344481594146        4.11691343330697       -2.37359827210846
C            0.40624656267711        4.57822368258554       -3.62147904629299
C            0.61355552560396        5.93356195291868       -3.78569916776275
C            0.50537417798749        6.77590253208452       -2.69716025616779
F            0.71108621004853        8.09705859127563       -2.86891755879719
C            0.19188037352661        6.31509044710056       -1.43181037440794
C           -0.01627763798109        4.95323584794504       -1.26911046823382
N           -0.64682781890348        0.35368703313034        1.85135071737751
C            0.04838882210986       -0.25166047975495        2.90808895307840
C           -0.77268108396242       -1.13618481164598        3.84122787954179
C            1.34561197897921       -0.95438829851520        2.59036781148484
C           -1.60799183695722        1.30209249565260        2.27282188641542
C           -2.44325694687270        1.98673334350704        1.23883060332979
C           -0.84935596171895        2.42088982316432        3.02031090781317
O           -1.40819055248243       -0.98315572947668       -0.57280118977266
C           -1.44915920027319       -2.31450337474806       -0.95600417462564
C           -2.69112614758114       -2.82097721541071       -0.57688393911803
C           -3.72681141738128       -2.01868671696495        0.05564361809236
C           -4.96350063867887       -1.99159845241063       -0.59444608513024
C           -6.02627574727955       -1.28654964853321       -0.07174723979700
C           -5.88413821644556       -0.59077481083068        1.11532009161932
O           -6.90248092861543        0.13684692220298        1.69806637239096
C           -8.18734631707853        0.20594825593823        1.08918250597417
C           -4.65464762030149       -0.60739308676228        1.78168987926494
C           -3.61839272672861       -1.32680958059830        1.22121988021082
C           -3.01109241827069       -4.13665137644855       -0.81769948810838
C           -2.10924098365866       -4.95359892010168       -1.42317283781003
C           -0.89753931240517       -4.45851647192566       -1.79252415200234
C           -0.51101117803220       -3.11175694806578       -1.58859140247232
C            0.78803475152735       -3.01880547246462       -2.22279823955977
C            0.79165304088555       -2.95434138615546       -3.74462373839767
C            2.29581015241482       -3.21018871690689       -3.94463894123639
C            1.38151295697836       -4.40394984856401       -1.83118016151461
C            0.25814219802947       -5.27636363172449       -2.32325234199949
C            3.18422063682994        1.77186224399779        0.23541730552828
C            3.64948416350416        2.70029763801828        1.15728785323298
H            6.07551137138660        2.27708706402925        4.47607377233406
H            6.71918259798545        3.94948769277838        4.08749524369035
H            7.10178177170328        2.53027727661549        3.03918234545210
H            6.19283893554141        0.82977352609829        2.35602350395227
H            5.34627156328567       -0.74106758426641        0.74431103867906
H            5.29949415391686       -0.36210699273004       -1.82620993861481
H            4.84811727278196       -2.01236092512015       -3.51273363718939
H            0.47280694249912        3.85837058353520       -4.42061747334896
H            0.85953710989160        6.30667300622347       -4.76695073488572
H            0.10739337330114        6.98295960811313       -0.57652932538765
H           -0.26545710025285        4.56382139271433       -0.27931301392875
H            0.37616274893695        0.59835474435421        3.59564245879347
H           -0.37390232574668       -1.09556790205217        4.87076606728122
H           -0.81983699445865       -2.16406191019182        3.44575410323138
H           -1.80004139234844       -0.77329896843064        3.88822183844483
H            1.75416201758603       -1.41844189236377        3.52529364525047
H            2.07050215098980       -0.23611158264430        2.18938031607509
H            1.20443455961658       -1.78925252970595        1.89593655195611
H           -2.30817600489030        0.89808257213905        3.04114527763371
H           -2.78745916929791        1.36879340231880        0.40816531744905
H           -3.38748450828858        2.31436823344746        1.75002962361620
H           -1.96554464121966        2.94348080119650        0.95501108981448
H           -1.34593193663941        3.39152900963450        2.86263311441233
H           -0.83345988264021        2.22108011398301        4.10730833877838
H            0.19696057254628        2.49219729780058        2.63740687520275
H           -5.12742716133536       -2.51625207267708       -1.52153274209275
H           -6.98647495710084       -1.25827904219402       -0.56573828283556
H           -8.58982376914342       -0.81650882583771        0.95030441696267
H           -8.84476936917571        0.80320604965537        1.74774496732130
H           -8.13120615705539        0.67792764613711        0.09865754564122
H           -4.51653309989121       -0.06842388027809        2.71834038173799
H           -2.68927685009616       -1.34829948069973        1.75027767577678
H           -3.96044336376613       -4.52458772243441       -0.52786507353238
H           -2.38794218811754       -5.99041679038071       -1.59511697074565
H            0.14445634942296       -3.63038572355959       -4.25898067620743
H            0.61371065493310       -1.87721266811075       -3.98402542123372
H            2.54003805833118       -2.70377855621070       -4.90618721046280
H            2.56786239972292       -4.24650469951595       -3.93719195046517
H            1.38620583998792       -4.46251639493440       -0.71297120315195
H            2.36817393208810       -4.53981213398996       -2.17504182732566
H            0.27966293892453       -6.27858368298075       -1.83689860600410
H            0.19847670684294       -5.34140491986683       -3.39799060051147
H            2.35195236661233        2.06406074514256       -0.36264266003520
H            3.16266515700141        3.65206209589529        1.25472637514425
96
 energy: -147.030332682144 gnorm: 0.156301793124 xtb: 6.7.1 (edcfbbe)
C            6.33054465717307        2.99106943742692        3.66140638150735
O            5.20232692696713        3.29010397170482        2.85282863438270
C            4.75414769145002        2.36530056387936        1.94535253350056
C            5.34329332447936        1.11761024445917        1.77253154777074
C            4.85817747047185        0.21922601943412        0.84485853038950
C            3.75251835951410        0.54078291698872        0.05931044473178
C            3.35405862341471       -0.45320177574894       -0.93457860910458
C            4.33692772782113       -0.81979517142504       -1.84000961186759
C            4.08587736919393       -1.75754017135557       -2.81518714775951
C            2.84852053142685       -2.32839126913673       -2.85579796336339
C            1.84172732943775       -2.02397615657708       -1.91099276128564
C            2.09141374096452       -1.05741594122572       -0.96008619381158
O            1.30112925517888       -0.55154412124155        0.07208699338411
P           -0.25786697939725       -0.08090538083565        0.28163615337138
Se          -0.63444077492927        1.84939358774998       -0.61583050412489
S           -0.09215092154425        2.38425066631541       -2.47553879261754
C            0.11484977305399        4.12688062305938       -2.37646192478892
C            0.41350156136835        4.59376490932399       -3.63093515805622
C            0.61580780700239        5.94457170277007       -3.79503111216800
C            0.50603817654260        6.78193416668887       -2.69833379389345
F            0.71099950712091        8.09850736293123       -2.86765759791166
C            0.19133254062116        6.31342190356200       -1.43207556557431
C           -0.01478258426807        4.95358295337091       -1.26987366001298
N           -0.63701824798511        0.31739996448553        1.84677888127629
C            0.07006781431169       -0.25429732793510        2.95064676369197
C           -0.78707342069929       -1.14599459242697        3.84424246458576
C            1.35693377443450       -0.96577383994179        2.60196344488278
C           -1.60230131567769        1.31323045898538        2.27999922114392
C           -2.49063671178583        1.99974332768669        1.26710186658315
C           -0.84375267856721        2.43113997807295        3.02823152636002
O           -1.36470038669553       -0.98949267521386       -0.57691376303028
C           -1.45888784405863       -2.32418392678535       -0.94552148487219
C           -2.70383969894676       -2.83134748975578       -0.56905365102590
C           -3.74315992882062       -2.01382739204559        0.04969001763309
C           -4.97688182243335       -1.98809055535536       -0.59575849691156
C           -6.03511153713063       -1.28130165334709       -0.06967595865437
C           -5.89394447265678       -0.58123775420232        1.12310543980325
O           -6.90096160362603        0.14258229566137        1.70314466018730
C           -8.17852165476992        0.19865354561112        1.08572736949179
C           -4.66212089560342       -0.60288410423015        1.78253095058021
C           -3.61837470748769       -1.31894827757280        1.23044747980613
C           -3.02861331354680       -4.14537889167975       -0.82208363269822
C           -2.11995350032954       -4.97502530497901       -1.42715901900577
C           -0.90633606377604       -4.47497372945603       -1.78889823967592
C           -0.53879231414807       -3.12586362626788       -1.58525842000123
C            0.79141364121722       -3.01559372823308       -2.20326195134089
C            0.79716366929480       -2.94185431175414       -3.73579781956415
C            2.29361483380280       -3.17352380769763       -3.97570447559706
C            1.36928061321138       -4.40476289360832       -1.80704717300981
C            0.25006070426637       -5.29034414682133       -2.30246581483139
C            3.17759488814290        1.77993333288540        0.24079596467417
C            3.65098001783392        2.69861038951493        1.16220560139954
H            6.07382184047768        2.28895057040598        4.46990802596484
H            6.70145866791276        3.93512508985537        4.07885460359791
H            7.11453889004093        2.53805430465556        3.04402770799236
H            6.19588684746628        0.82578830714869        2.36027426301648
H            5.34447434924421       -0.73965185326547        0.74403590531920
H            5.30468601264589       -0.35315824014472       -1.81749689527380
H            4.85153631861063       -2.01472892524931       -3.52420452757657
H            0.47736891698707        3.87251730304540       -4.42982535434965
H            0.86135366561003        6.32156588288804       -4.77135229751803
H            0.10830923381860        6.98228772483359       -0.58542666186053
H           -0.26351327025105        4.55942446456576       -0.28750935773559
H            0.38165771357894        0.59731311865935        3.59347498368517
H           -0.37845292122965       -1.11327735620804        4.85704944472104
H           -0.81779964279213       -2.16666642249231        3.45790859481273
H           -1.80826814074023       -0.77863570600245        3.89542932271266
H            1.75826884285500       -1.40775606256490        3.52165333668340
H            2.07627158808347       -0.25260630892768        2.19588517245145
H            1.20395078694449       -1.79047279104500        1.90371483354478
H           -2.29319952874925        0.87891758496698        3.02627698541634
H           -2.80676621269637        1.37379509926108        0.43171370686842
H           -3.40818585389922        2.31584758410022        1.76656210920876
H           -2.00125706198609        2.93200221457846        0.94585555276854
H           -1.33987471641947        3.38926932423461        2.87329643116297
H           -0.82381576848173        2.23298390385060        4.10184389948203
H            0.18379938211288        2.50344795864121        2.64392376987521
H           -5.12598960509310       -2.51694639934932       -1.52382184313456
H           -6.98736448110916       -1.26143633380160       -0.57206599077211
H           -8.59407913025475       -0.81092739515864        0.95825576103163
H           -8.82704569432052        0.79075314004583        1.74284866702567
H           -8.12877346537254        0.68098456313931        0.10239203688856
H           -4.52698099748303       -0.07119807942619        2.71457359197199
H           -2.68154093540228       -1.35026926456644        1.75853590289647
H           -3.97974178808314       -4.52891399246107       -0.52095353053428
H           -2.38333071744214       -6.00509092619324       -1.59664395328710
H            0.14102153804779       -3.61837015082092       -4.25957400205327
H            0.59733763559581       -1.89171560170266       -4.00087079828642
H            2.56292416213843       -2.71081157565636       -4.92595858389693
H            2.57105764680434       -4.22201004456851       -3.96289033448446
H            1.38991641970967       -4.46381783262097       -0.70893211142403
H            2.36764382688024       -4.56253705810519       -2.16055131307724
H            0.27305681585212       -6.28381497327282       -1.84528670902820
H            0.20665486519382       -5.36367725484599       -3.38546638313746
H            2.34100543914366        2.07018120792382       -0.37139072086953
H            3.16790257521779        3.65505789593716        1.25828718462261
96
 energy: -147.075058143538 gnorm: 0.074090930412 xtb: 6.7.1 (edcfbbe)
C            6.32850588244120        2.98647850467282        3.64621142338954
O            5.19671622568660        3.29281970795221        2.85169985431262
C            4.76021480809661        2.36750123949493        1.95892705210356
C            5.34983657087804        1.11487026549269        1.78538959284078
C            4.86400959861303        0.22570925956984        0.85601823365115
C            3.76037612233642        0.54595181154938        0.07470429108122
C            3.36357177627275       -0.43687390798711       -0.94087476876384
C            4.34972341589852       -0.81779270640928       -1.83517684967858
C            4.09754903648367       -1.74736530835438       -2.82743809384298
C            2.85136735109454       -2.30316506528532       -2.87797296307363
C            1.86415881994536       -2.01283286898769       -1.90691371107431
C            2.09446331718565       -1.04188724169467       -0.97011076502408
O            1.24795658000395       -0.56939459506637        0.05773375083328
P           -0.24690896087214       -0.06638955512347        0.24149782408949
Se          -0.58272856176614        1.90862328024863       -0.64517697160330
S            0.00370603103016        2.32300158485693       -2.58220934294113
C            0.13265473839263        4.10711281338229       -2.38924351253399
C            0.42304883641028        4.61177618403187       -3.64536358954719
C            0.61774978645013        5.96162667543885       -3.80655474158908
C            0.50551872090328        6.78716114986092       -2.69910145105882
F            0.70740228679775        8.10238142490466       -2.85792457605465
C            0.18925750025921        6.29876164311248       -1.43971459767184
C           -0.01060607674821        4.93393196909655       -1.28179932781511
N           -0.62518315009029        0.30046113961738        1.81603616754425
C            0.08741048384584       -0.25747270756595        2.97053760418320
C           -0.79501796063146       -1.15597114734900        3.84203717236055
C            1.37043854988800       -0.98036247861925        2.62234684685113
C           -1.59637972163475        1.32462588994822        2.28770523769463
C           -2.54835908086262        2.00723960019293        1.30673432417059
C           -0.83551084899307        2.43823370820199        3.03653755225228
O           -1.29939784300940       -0.97078094770270       -0.58536487852245
C           -1.45961099444586       -2.32640846881925       -0.92184393202672
C           -2.71506380077764       -2.83585068746237       -0.55626038139770
C           -3.76111655389029       -2.00541313227043        0.04680293135744
C           -4.99299810341786       -1.98075076017869       -0.59537440636762
C           -6.04844837221370       -1.27224977338800       -0.06767705382657
C           -5.90582244325324       -0.57055800579413        1.12914755795328
O           -6.89932866658440        0.14858078739881        1.70933895567251
C           -8.16918962353362        0.19266185810212        1.08538440448125
C           -4.67111960342281       -0.59925809010147        1.78194010852960
C           -3.61989496034333       -1.31105640899068        1.23962473926703
C           -3.04871726340234       -4.15090662284987       -0.82568841845211
C           -2.13792980443902       -4.99625905572210       -1.42841973657510
C           -0.92018143240016       -4.49311185380853       -1.78328362969684
C           -0.56502220011614       -3.14068004425535       -1.58108493252142
C            0.79465727792320       -3.01385614253957       -2.18605664803214
C            0.79899463772936       -2.92678563086704       -3.73005134303902
C            2.28978515417414       -3.12789088266299       -4.00871984804632
C            1.35797433177907       -4.40683379863388       -1.78160316258994
C            0.24051890929828       -5.30614353667394       -2.27567264650718
C            3.16933710066177        1.78951176853952        0.24734005677181
C            3.65277086984663        2.69561578138991        1.17013010273018
H            6.07021968050456        2.29876352591203        4.45912563971119
H            6.67828762349634        3.92704896893825        4.07027416715331
H            7.12962784138112        2.55148741554583        3.04625516341530
H            6.20175973553657        0.82162344767995        2.37099940834687
H            5.34182411301465       -0.73635506122871        0.74304605867345
H            5.31317690920552       -0.34157352623694       -1.80033699193192
H            4.85776407137528       -2.01019783913482       -3.54059561692836
H            0.48919547145540        3.90134437088658       -4.45347591834833
H            0.86198688164754        6.35253721366212       -4.77697674631674
H            0.10600022506906        6.97085176332898       -0.59937608644399
H           -0.25924872440141        4.54400519830963       -0.30139233437554
H            0.38406179744108        0.58906667504697        3.58812113413854
H           -0.38431941834916       -1.14622111821292        4.84660657977326
H           -0.81616872073089       -2.17243440397563        3.46486285120280
H           -1.81309276909144       -0.78828800182493        3.90291097935193
H            1.77323583148320       -1.40291284507206        3.53123749905154
H            2.08901253760656       -0.27803496385490        2.20620381024085
H            1.20142809792308       -1.79942188447634        1.92580380049461
H           -2.26338553879560        0.83862139014876        3.01255723880650
H           -2.84140201329663        1.37273542027529        0.47060745733969
H           -3.44544209304839        2.30382169383978        1.81483378057062
H           -2.07800916873913        2.92936879791915        0.95230959787297
H           -1.33593298192365        3.38700156660786        2.88929205742677
H           -0.80545107227800        2.24414465449476        4.10175960728602
H            0.17530952460115        2.52271431248333        2.64813770584319
H           -5.12588122832648       -2.51490293176972       -1.52434084324624
H           -6.99318899426286       -1.26359049621875       -0.58113009139903
H           -8.59570010896849       -0.80703746843240        0.96900311768827
H           -8.80780233136677        0.78010169105346        1.74335601839166
H           -8.12243860855139        0.68284007478821        0.10764175013673
H           -4.54404291447392       -0.07395844134115        2.71310111892902
H           -2.67722782853275       -1.35360447476866        1.76578820851680
H           -4.00487711622637       -4.52855673613522       -0.51523207820618
H           -2.38433446947292       -6.02637963678971       -1.59591369950338
H            0.13628101735168       -3.60610806293123       -4.25608138550653
H            0.56091366841052       -1.90155210720257       -4.01651243178347
H            2.58568183699319       -2.70754823393279       -4.95799067879835
H            2.57674893154493       -4.18275024337344       -3.99361271982877
H            1.39497842045805       -4.46475310152196       -0.69639441733043
H            2.36101759051822       -4.59640280574179       -2.14610452349676