79
 energy: -106.958340276561 gnorm: 0.087914818870 xtb: 6.7.1 (edcfbbe)
C            0.94067500000000       -3.34453700000000        2.49042800000000
C            2.08478500000000       -2.50670200000000        2.99550200000000
C            3.34191100000000       -3.11378400000000        3.16378100000000
C            4.43207700000000       -2.38417100000000        3.63607000000000
C            4.28066200000000       -1.03929000000000        3.95191500000000
C            3.04130500000000       -0.42046500000000        3.78298100000000
C            1.93850600000000       -1.13389800000000        3.28622800000000
S            0.36142200000000       -0.30298700000000        3.09815900000000
S            0.78833300000000        1.45873500000000        2.12587700000000
P            0.22562100000000        1.16728100000000        0.09038700000000
N            0.98141700000000        2.23170200000000       -0.94374300000000
C            2.06682000000000        3.16571400000000       -0.57662100000000
C            1.59723200000000        4.30962300000000        0.32622100000000
C            3.32736700000000        2.47795900000000       -0.04788100000000
C            0.67378600000000        2.27386500000000       -2.39399900000000
C            0.22319800000000        3.66047800000000       -2.89735700000000
C            1.85342400000000        1.81975400000000       -3.26982000000000
N           -1.43056700000000        1.32589900000000       -0.05641400000000
C           -1.93176900000000        2.66861400000000       -0.30508100000000
C           -2.23160100000000        0.66092100000000        0.90347600000000
C           -2.64755300000000        1.26149400000000        2.11041300000000
C           -3.30726700000000        0.53204200000000        3.11370000000000
C           -3.55269000000000       -0.82635300000000        2.94709700000000
C           -3.16897100000000       -1.41197400000000        1.75371700000000
C           -2.56859700000000       -0.66645300000000        0.71790500000000
C           -2.50109300000000       -1.49749600000000       -0.52792000000000
C           -2.45386000000000       -2.91435300000000        0.10741000000000
C           -3.34373500000000       -2.84490700000000        1.35743300000000
C           -3.80591200000000       -1.30995800000000       -1.35476400000000
C           -3.53866400000000       -1.97615000000000       -2.70093500000000
C           -2.06866400000000       -1.72927700000000       -2.84435900000000
C           -1.34543400000000       -1.91310700000000       -4.00769600000000
C            0.01735900000000       -1.69657700000000       -3.95074800000000
C            0.60971800000000       -1.24833600000000       -2.75756300000000
C           -0.11949300000000       -0.98059100000000       -1.57215600000000
C           -1.46930300000000       -1.32646700000000       -1.61837200000000
N            0.49677000000000       -0.39468100000000       -0.43264900000000
C            1.89309400000000       -0.80458000000000       -0.27122900000000
H            0.63923200000000       -3.01100100000000        1.49398800000000
H            1.22091400000000       -4.40081300000000        2.41370400000000
H            0.08724700000000       -3.29009100000000        3.17369600000000
H            3.47733200000000       -4.16852600000000        2.93252700000000
H            5.39566900000000       -2.86984800000000        3.76694300000000
H            5.12388100000000       -0.46964100000000        4.33380400000000
H            2.94372900000000        0.63003000000000        4.04906500000000
H            2.42390400000000        3.68218100000000       -1.47460800000000
H            2.38207900000000        5.07116500000000        0.40535200000000
H            0.71330700000000        4.80260600000000       -0.09176000000000
H            1.35943700000000        3.99571500000000        1.34149800000000
H            4.12568800000000        3.21556700000000        0.09353000000000
H            3.69773600000000        1.74237500000000       -0.76823600000000
H            3.18623300000000        1.97476600000000        0.90774400000000
H           -0.16213400000000        1.59391400000000       -2.58217900000000
H           -0.26736200000000        3.55919700000000       -3.87254900000000
H           -0.48363700000000        4.14749100000000       -2.22344700000000
H            1.06265600000000        4.35195300000000       -3.02967400000000
H            2.36525500000000        0.95090200000000       -2.85698800000000
H            2.60970100000000        2.60346300000000       -3.38915500000000
H            1.49838000000000        1.55867100000000       -4.27318200000000
H           -1.38163700000000        3.42670500000000        0.25971700000000
H           -3.00055000000000        2.77971700000000       -0.08024300000000
H           -1.86382100000000        2.88044500000000       -1.37070500000000
H           -2.40814100000000        2.30204900000000        2.31528800000000
H           -3.58634300000000        1.02455800000000        4.04060000000000
H           -4.02844900000000       -1.40540900000000        3.73109900000000
H           -2.77371800000000       -3.71747600000000       -0.56545300000000
H           -1.42533100000000       -3.15343400000000        0.41044600000000
H           -2.99346200000000       -3.53468900000000        2.13045100000000
H           -4.39173000000000       -3.05139200000000        1.11863800000000
H           -4.70276000000000       -1.72061700000000       -0.87823500000000
H           -4.00077700000000       -0.23828100000000       -1.51573900000000
H           -3.74598100000000       -3.05046600000000       -2.67182500000000
H           -4.11986600000000       -1.50659200000000       -3.49981600000000
H           -1.82312200000000       -2.24334200000000       -4.92384200000000
H            0.63311300000000       -1.85619500000000       -4.83159700000000
H            1.68086800000000       -1.08629100000000       -2.79927500000000
H            1.99708700000000       -1.89478800000000       -0.33654600000000
H            2.55057400000000       -0.33910400000000       -1.00950400000000
H            2.29449300000000       -0.51245900000000        0.69707700000000
79
 energy: -106.973717461435 gnorm: 0.033727010207 xtb: 6.7.1 (edcfbbe)
C            0.94010809547511       -3.33357955952588        2.49082973307404
C            2.09027032571644       -2.50594431343937        2.98511809165446
C            3.33685321992282       -3.10145807938554        3.16720876608792
C            4.42132906862530       -2.37669644581006        3.63583445181445
C            4.27041757560340       -1.03544369338972        3.94762843948063
C            3.03976841932235       -0.42285584046520        3.77547199918134
C            1.95727753518484       -1.14160208960811        3.27238510313205
S            0.36824556246403       -0.33374036897085        3.06635073224938
S            0.84195671362717        1.40160180151570        2.07572061584032
P            0.21660879843046        1.16571497876072        0.03759379615489
N            0.99315087707712        2.25259652576584       -0.96070319064740
C            2.07371803094948        3.18016866708605       -0.57212602211221
C            1.59318920639167        4.30484528533366        0.34234391817106
C            3.32108316716267        2.47617587031300       -0.03793587791396
C            0.67126222215378        2.27741190611701       -2.40366874900292
C            0.22219866604648        3.66278319864374       -2.89165864173580
C            1.85417290167377        1.82028088136250       -3.26450901505050
N           -1.44533750474341        1.34234788675449       -0.06704826991898
C           -1.93713227657741        2.69245662554949       -0.32177977110759
C           -2.21265611761924        0.64988104096891        0.92209809545852
C           -2.60754111360213        1.25248012974175        2.12476587599479
C           -3.28367271216743        0.53792475073920        3.10452971784435
C           -3.54038656354994       -0.81548043714832        2.93772652804495
C           -3.17144909917067       -1.40622139299140        1.74750202217051
C           -2.56198531983176       -0.67253491131229        0.72219939036583
C           -2.50968381286386       -1.50438138879123       -0.52756878821245
C           -2.45407642065329       -2.92791962944954        0.08678808687290
C           -3.33185426022952       -2.83860960271829        1.34351466136798
C           -3.82253935361880       -1.31321705432159       -1.33380870253055
C           -3.53410830622929       -1.96758518042510       -2.68417561743389
C           -2.06307195445510       -1.74139175991755       -2.83541791687540
C           -1.33553336411455       -1.91243707288425       -3.99309675468982
C            0.02783318525975       -1.69171359122223       -3.93309231566343
C            0.60924793061334       -1.23445158044206       -2.75966889828963
C           -0.12886022100201       -0.99281051789879       -1.58847872031302
C           -1.47707763146134       -1.33823281923238       -1.62066769825442
N            0.50008628170744       -0.41338254211054       -0.44306572963622
C            1.89742457721616       -0.80987846732143       -0.26218783328374
H            0.62483681206727       -2.99619062819090        1.50326816328277
H            1.22672024260798       -4.38274118040790        2.41589118891322
H            0.08841631964530       -3.26618674809477        3.16767981927435
H            3.46326276581214       -4.15109183004238        2.93875550557424
H            5.37961807847785       -2.86110524903114        3.76603806379846
H            5.10607204496309       -0.46698909629496        4.33077987299809
H            2.92949624977882        0.62355582945253        4.03171495806959
H            2.39670816693940        3.67006528417211       -1.49453659040471
H            2.37739277866594        5.05833542788570        0.41966503208837
H            0.71501803930198        4.78962284126385       -0.08429668106092
H            1.35421688644895        3.96300261902405        1.34821252395411
H            4.11085114299091        3.21441354755734        0.10047051317190
H            3.68458553043852        1.74467352221508       -0.75961789515719
H            3.16153080004116        1.97869614585911        0.91580632971553
H           -0.15761267001634        1.57610168939415       -2.55679976911966
H           -0.26174682463949        3.55008773382715       -3.86117228452177
H           -0.48217134454535        4.14133060043283       -2.21614206453696
H            1.06437290211886        4.34085250819348       -3.02484578639969
H            2.35518131744106        0.95153258113132       -2.84750307614246
H            2.59891530369981        2.60731901063241       -3.38165559807668
H            1.49241040328680        1.55827617280808       -4.25758366952070
H           -1.39157768171322        3.45225363812059        0.24266386430446
H           -2.99526650276130        2.75969810168429       -0.05772442800225
H           -1.86593508922004        2.90047788439614       -1.38821388448498
H           -2.39293903897965        2.29734050317699        2.30905577566952
H           -3.58057179641924        1.03590661015360        4.01686375262142
H           -4.01666005016071       -1.39068714949608        3.71907023589541
H           -2.77617899412251       -3.71326870269426       -0.59641484454516
H           -1.42459077158844       -3.14775792640659        0.38571448794864
H           -3.00184500616022       -3.52575331004793        2.12324649694504
H           -4.37822287796121       -3.05383609374251        1.11848575603521
H           -4.70284183944064       -1.72573968433617       -0.84172160586648
H           -3.99444254365205       -0.24199228983137       -1.48544758472956
H           -3.74958718732675       -3.03792294765099       -2.67027654158245
H           -4.10702314407460       -1.51491263875206       -3.49423827862851
H           -1.81368578648763       -2.22962455637824       -4.90912149344060
H            0.64591845519445       -1.85439678256352       -4.80472712363937
H            1.67641270967457       -1.07952905156571       -2.78518044890346
H            1.98451645467331       -1.89501200317895       -0.33836384487665
H            2.55849986816180       -0.35260269312522       -1.00258835496304
H            2.26871254810546       -0.51130089941938        0.71983999605461
79
 energy: -106.978256434708 gnorm: 0.013370659775 xtb: 6.7.1 (edcfbbe)
C            0.93376241232144       -3.32298527717211        2.48538243750588
C            2.08972455772929       -2.50739233512726        2.97276213754716
C            3.33205153979075       -3.09481534229539        3.16744153307513
C            4.41113609558483       -2.36837914164057        3.63558079663448
C            4.25784805372174       -1.02663156270890        3.94044198947859
C            3.03149269705613       -0.41721794756526        3.75513443506375
C            1.96551286636713       -1.14639681004954        3.24943713386168
S            0.37579080445164       -0.34673802091655        2.98526423775869
S            0.85597906233269        1.40077311754595        2.02975117605892
P            0.21379477875443        1.15713703416812        0.00045982419862
N            1.00371552341842        2.26399011509677       -0.96470616281701
C            2.07912935114186        3.19031196183527       -0.56417929283085
C            1.58745199626429        4.29392173797317        0.36410849925943
C            3.31837663272148        2.48034690860357       -0.02754959473387
C            0.66873117967176        2.27668671993781       -2.40322616969019
C            0.21700918141281        3.65580662188905       -2.89390287289445
C            1.84745699800248        1.81878940492961       -3.26462272927965
N           -1.44898950213693        1.35634585390526       -0.07861651200107
C           -1.94682142674110        2.70914109866423       -0.33577376315013
C           -2.18798085502055        0.64249376817327        0.93146595047130
C           -2.56835794293631        1.25164137901268        2.12846323334072
C           -3.24976350502062        0.54362223232702        3.09816978310681
C           -3.51396891874361       -0.80839842460936        2.93243918479204
C           -3.15348640464236       -1.40602593463138        1.74496271800173
C           -2.54203216859734       -0.67600931314976        0.72351483879593
C           -2.50605860175531       -1.50604105209242       -0.52665229331132
C           -2.45133989976838       -2.93191060889837        0.07640987817418
C           -3.32165566951541       -2.83776352173152        1.33615768197671
C           -3.82318214611140       -1.31161462477841       -1.31987435985349
C           -3.53541995807397       -1.96085760819943       -2.67379036988437
C           -2.06263949801766       -1.74359557279087       -2.82939751070803
C           -1.33057292215735       -1.90747447755169       -3.98376873748612
C            0.03513741700124       -1.68807888354819       -3.92205435716454
C            0.61289716517517       -1.23039413378830       -2.75746138902642
C           -0.13388338432149       -1.00234535215419       -1.59843365329619
C           -1.47982583325525       -1.34293327796479       -1.62152080652215
N            0.50246857634283       -0.43626778868355       -0.44193972667650
C            1.89870208547817       -0.82930152173277       -0.24952552733870
H            0.60614999833368       -2.97605345166367        1.50595880002116
H            1.21929225590569       -4.36847363140778        2.40862679195215
H            0.08840411549063       -3.24147652089570        3.16556078563263
H            3.45216274493901       -4.14420963897773        2.94777916452353
H            5.36579003417046       -2.85123007513453        3.77218948471473
H            5.08692551605384       -0.45714951212663        4.32812971161125
H            2.90604172274707        0.62765071833228        3.99932752345134
H            2.37992210779241        3.67049337295661       -1.49728428452423
H            2.36790532414884        5.04404167966755        0.46021994709965
H            0.71099446540773        4.77670637392557       -0.06051210782706
H            1.34644307310872        3.91363084936519        1.35567425591887
H            4.10508118859332        3.21562993444229        0.11588125401047
H            3.67538792084344        1.74623274276927       -0.74552826295380
H            3.13527449018581        1.99070618701841        0.92383770238848
H           -0.15525141700481        1.56028994584510       -2.52670555322036
H           -0.26531724195428        3.54304393535719       -3.86048242305626
H           -0.48051489619629        4.13140846739174       -2.21378806552099
H            1.06227484175572        4.32510502728657       -3.02471089738174
H            2.34045973307897        0.95228547475733       -2.83903886900329
H            2.58719642336487        2.60657250936709       -3.37680332908763
H            1.48606921384672        1.55456438829133       -4.25372774186608
H           -1.40726663115235        3.47687968919081        0.22254092272301
H           -2.99753643060657        2.74452960883159       -0.04830147185179
H           -1.88016993102600        2.91270469679746       -1.40167440502786
H           -2.34299202064558        2.29239312979630        2.30429266930531
H           -3.55644092483100        1.04467966684425        4.00257624069985
H           -4.00340597470255       -1.37619313557313        3.70829657920153
H           -2.78538080866939       -3.69831904009657       -0.61672854206376
H           -1.42131490056760       -3.15144777267419        0.36242884333337
H           -3.00435636251241       -3.52622409768022        2.11860377504677
H           -4.36898534860222       -3.05477414747513        1.11756613522010
H           -4.68682649784122       -1.73378615069927       -0.81482149700963
H           -3.99287223818418       -0.24202955852100       -1.45884423084481
H           -3.75972978385456       -3.02946670119978       -2.66541480429962
H           -4.10487448301258       -1.51561393469375       -3.48875557223885
H           -1.80752056976183       -2.22043371463913       -4.89872649955308
H            0.65379407236511       -1.85225303410873       -4.78954589516886
H            1.67598594742070       -1.06628497232655       -2.76795599676909
H            1.97405864124184       -1.91126425111124       -0.33578860854208
H            2.57252195791233       -0.37178963608991       -0.97803424619038
H            2.24043333449249       -0.53251284142028        0.74333307671050
79
 energy: -106.980037589186 gnorm: 0.010378539516 xtb: 6.7.1 (edcfbbe)
C            0.92285649030346       -3.31495572527056        2.47576794432774
C            2.08365677744311       -2.50413484789821        2.95426799995222
C            3.32461261953665       -3.08946939366050        3.16716188357413
C            4.39871172917249       -2.35633018381687        3.63679082732421
C            4.24170282450984       -1.01150270388058        3.92896359620058
C            3.01706039985016       -0.40239178447753        3.72281491142740
C            1.96062565180451       -1.14040004639322        3.21266191302906
S            0.35444411642393       -0.36727169918789        2.95083100649938
S            0.86312380533047        1.37488160733940        2.00257324391075
P            0.21710328804408        1.15402694130464       -0.01967898063330
N            1.00845777764633        2.27016335455674       -0.96754390832159
C            2.08022554224087        3.19755054731580       -0.56072470334468
C            1.57879658283753        4.27962267240752        0.38715494095328
C            3.31609451933606        2.48653848420580       -0.02041615767256
C            0.66588028043416        2.27404209025103       -2.40383429397927
C            0.20886990190873        3.64913984581173       -2.89696014460119
C            1.84177976272136        1.81262520643253       -3.26612903753094
N           -1.44288278148724        1.36338621791448       -0.09257507800795
C           -1.95651411451193        2.71271220592237       -0.34800090213106
C           -2.16318444545808        0.64037832230223        0.92946008137546
C           -2.52555084913853        1.25356205954474        2.12882345280552
C           -3.21026819126392        0.54899128332376        3.09900546610350
C           -3.48658140888612       -0.80111943577905        2.93189718124400
C           -3.12915457012505       -1.40485144422767        1.74626778016361
C           -2.51946256578399       -0.67614092323828        0.72222809080912
C           -2.49681442152331       -1.50519140562262       -0.52617194764680
C           -2.44737015393066       -2.93336408032073        0.07013031070614
C           -3.30814031306987       -2.83587152332894        1.33546122932482
C           -3.81863961616967       -1.30833621177458       -1.30973554710648
C           -3.53707786505355       -1.95245846885888       -2.66799236502174
C           -2.06271786592563       -1.74091857264154       -2.82851803820982
C           -1.32778533825451       -1.90417254011404       -3.98169405374291
C            0.03911673794840       -1.68550374981372       -3.92093176586519
C            0.61816738624266       -1.22793766098963       -2.75651463907936
C           -0.13258189050435       -1.00501246104440       -1.60120243750790
C           -1.47691733635361       -1.34315787209450       -1.62162803480159
N            0.50422281783143       -0.44764879391407       -0.43626118751260
C            1.89612288458478       -0.85048080598151       -0.23355316478707
H            0.58533786673854       -2.96114579926371        1.50183064396219
H            1.20180329858577       -4.36100686939375        2.39533893148179
H            0.08530055930300       -3.22464223723844        3.16500007779393
H            3.44412359709041       -4.14190593094845        2.96014133364924
H            5.35274333538065       -2.83672141231805        3.78397186638959
H            5.06620636376369       -0.43932732440588        4.32229922554637
H            2.88153346670625        0.64317946551503        3.95670334518086
H            2.37512760638837        3.68586498828757       -1.49008101683659
H            2.35538108144396        5.02960103245013        0.51170718785876
H            0.70274123131172        4.76803233638410       -0.03008943229453
H            1.33296214862210        3.86846341517384        1.36581367390543
H            4.10389219201869        3.21846676872438        0.12979075431194
H            3.67298909543402        1.74900573070095       -0.73378417573962
H            3.12042425156899        2.00121307456986        0.92995545198358
H           -0.15629776611591        1.55224562710704       -2.51159291534427
H           -0.27554059225874        3.53438760142949       -3.86181879627192
H           -0.48493728465199        4.12595481681121       -2.21419177355758
H            1.05532969746779        4.31628817516122       -3.03037679062797
H            2.33229669146074        0.94716311656044       -2.83571085958361
H            2.58104416063806        2.60051608125138       -3.37679958329683
H            1.48027762176350        1.54742846254685       -4.25456385978319
H           -1.42120658248309        3.48881155795581        0.20295662581557
H           -3.00309579378387        2.73140680048335       -0.04747700954085
H           -1.90216259337434        2.91436154670405       -1.41422819105645
H           -2.28412402513160        2.29114343550383        2.30033027117446
H           -3.51574629310069        1.05149186912690        4.00245854926463
H           -3.98305172553726       -1.36300221233372        3.70707906170780
H           -2.79570922665474       -3.68872535178567       -0.62811958972155
H           -1.41701171279146       -3.16394852422084        0.34336436719633
H           -2.99294883965835       -3.52734637915532        2.11605143715081
H           -4.35789715275221       -3.04832196844437        1.12149467506135
H           -4.67315312739991       -1.73945641611932       -0.79698293487049
H           -3.99498388918416       -0.23928571472332       -1.43814733071233
H           -3.76812310088658       -3.02019188280288       -2.66117481175537
H           -4.10676817417252       -1.50419585300523       -3.48079154006977
H           -1.80371475252913       -2.21505970921457       -4.89714422161351
H            0.65718061419596       -1.85117608342719       -4.78833243690159
H            1.68013027617380       -1.05854508969322       -2.75702444441836
H            1.96217926870656       -1.93210794178203       -0.32993146781183
H            2.58537953985301       -0.39149322676541       -0.94683597815424
H            2.22210349913906       -0.56641647970877        0.76671820830118
79
 energy: -106.981465733376 gnorm: 0.008926841096 xtb: 6.7.1 (edcfbbe)
C            0.90649798582946       -3.31013224213808        2.46457354004263
C            2.07082575988623       -2.50400313604691        2.94013213187400
C            3.31223089908769       -3.08553033455295        3.16760762463732
C            4.38002595209665       -2.34164765113248        3.63761274473099
C            4.21926342517637       -0.99229390251447        3.90909406448332
C            2.99488188392525       -0.38662190172839        3.68611696972376
C            1.94471321346638       -1.13758062827112        3.18366692236651
S            0.33849698677873       -0.37099865499806        2.88851982200497
S            0.84667771647065        1.39550839690522        1.98518718985309
P            0.22378890502442        1.15041500145496       -0.03310245594953
N            1.01057394094942        2.27406805599666       -0.96740784858082
C            2.07732434669311        3.20359284516347       -0.55365328977184
C            1.56383658068834        4.25903192434533        0.41868939287440
C            3.31314702397944        2.49276435916359       -0.01376297984857
C            0.66309927276732        2.26994459889329       -2.40283958905083
C            0.20022442394559        3.64095747685195       -2.90015588977913
C            1.83669941335018        1.80549774110536       -3.26603807781446
N           -1.43111506444066        1.36586746816482       -0.11044177698709
C           -1.96792184943681        2.70700240603333       -0.36622987575667
C           -2.13395683986926        0.63899449142959        0.92229492896801
C           -2.47161244991535        1.25536999039840        2.12802647221027
C           -3.15442346872052        0.55492508915961        3.10446918630308
C           -3.44639685316599       -0.79232174712482        2.93625191541025
C           -3.09656621369661       -1.40260145337097        1.75112130793063
C           -2.49338425888601       -0.67580689886679        0.72015092987353
C           -2.48497140025343       -1.50366662833997       -0.52627286780289
C           -2.44248570293210       -2.93444942888642        0.06432900063848
C           -3.28781555402719       -2.83247005858505        1.33979598845599
C           -3.81209506671698       -1.30311304910118       -1.29982896530094
C           -3.53807493576533       -1.93880531242313       -2.66442707693572
C           -2.06235612490086       -1.73442561771698       -2.83076439666650
C           -1.32475583225563       -1.89818974432572       -3.98275620812823
C            0.04286830093000       -1.68120412900952       -3.92329148599207
C            0.62468034507461       -1.22589818987049       -2.75712614256861
C           -0.12825750191300       -1.00609614931899       -1.60268787455705
C           -1.47151966354304       -1.34237853462917       -1.62279017051594
N            0.50518240786260       -0.45759740564722       -0.42836069205701
C            1.88987385220482       -0.87916583362301       -0.21432421545536
H            0.55748667859076       -2.94430752425056        1.49845446439998
H            1.17841232483825       -4.35698194027828        2.37183906533161
H            0.07805112845802       -3.22001700739057        3.16577633958241
H            3.43433323711585       -4.14154406101417        2.97671351682652
H            5.33341047822061       -2.81866436753034        3.80350362098244
H            5.03918285841137       -0.41430090936567        4.30483834560715
H            2.85333948251587        0.66370736086407        3.89645520530803
H            2.36847975074025        3.70951588248375       -1.47460182772671
H            2.33670238681317        5.00774726819662        0.58014435412123
H            0.68947836844699        4.75859793248400        0.01044272985655
H            1.31010359615742        3.81370937619083        1.38106608163588
H            4.10246482036999        3.22248895292057        0.14162553270991
H            3.67195163221635        1.75244198621938       -0.72331962048813
H            3.11069515894775        2.01037020532114        0.93638140117044
H           -0.15769655628089        1.54583638935163       -2.50079225389626
H           -0.28907467371267        3.52156395144899       -3.86247347615295
H           -0.49073986951327        4.11983243563847       -2.21532583974696
H            1.04571852186706        4.30909169513140       -3.04044809429444
H            2.32613810925612        0.94042192321706       -2.83287566713712
H            2.57707169348958        2.59297590368375       -3.37669661667465
H            1.47466986955365        1.53928883607298       -4.25442695701734
H           -1.43715703407769        3.49455017227154        0.17325650617005
H           -3.00994365459573        2.71076353081018       -0.05074321808468
H           -1.93355802971835        2.90560851313424       -1.43414436857566
H           -2.21041216729594        2.28951460131848        2.29552937107800