      -----------------------------------------------------------      
     |                   =====================                   |     
     |                           x T B                           |     
     |                   =====================                   |     
     |                         S. Grimme                         |     
     |          Mulliken Center for Theoretical Chemistry        |     
     |                    University of Bonn                     |     
      -----------------------------------------------------------      

   * xtb version 6.7.1 (edcfbbe) compiled by 'conda@3ef47c1a292c' on 2024-11-25

   xtb is free software: you can redistribute it and/or modify it under
   the terms of the GNU Lesser General Public License as published by
   the Free Software Foundation, either version 3 of the License, or
   (at your option) any later version.
   
   xtb is distributed in the hope that it will be useful,
   but WITHOUT ANY WARRANTY; without even the implied warranty of
   MERCHANTABILITY or FITNESS FOR A PARTICULAR PURPOSE.  See the
   GNU Lesser General Public License for more details.
   
   Cite this work as:
   * C. Bannwarth, E. Caldeweyher, S. Ehlert, A. Hansen, P. Pracht,
     J. Seibert, S. Spicher, S. Grimme, WIREs Comput. Mol. Sci., 2020, 11,
     e01493. DOI: 10.1002/wcms.1493
   
   for GFN2-xTB:
   * C. Bannwarth, S. Ehlert and S. Grimme., J. Chem. Theory Comput., 2019,
     15, 1652-1671. DOI: 10.1021/acs.jctc.8b01176
   for GFN1-xTB:
   * S. Grimme, C. Bannwarth, P. Shushkov, J. Chem. Theory Comput., 2017,
     13, 1989-2009. DOI: 10.1021/acs.jctc.7b00118
   for GFN0-xTB:
   * P. Pracht, E. Caldeweyher, S. Ehlert, S. Grimme, ChemRxiv, 2019, preprint.
     DOI: 10.26434/chemrxiv.8326202.v1
   for GFN-FF:
   * S. Spicher and S. Grimme, Angew. Chem. Int. Ed., 2020, 59, 15665-15673.
     DOI: 10.1002/anie.202004239
   
   for ALPB and GBSA implicit solvation:
   * S. Ehlert, M. Stahn, S. Spicher, S. Grimme, J. Chem. Theory Comput.,
     2021, 17, 4250-4261. DOI: 10.1021/acs.jctc.1c00471
   
   for ddCOSMO and CPCM-X implicit solvation:
   * M. Stahn, S. Ehlert, S. Grimme, J. Phys. Chem. A,
     2023, XX, XXXX-XXXX. DOI: 10.1021/acs.jpca.3c04382
   
   for DFT-D4:
   * E. Caldeweyher, C. Bannwarth and S. Grimme, J. Chem. Phys., 2017,
     147, 034112. DOI: 10.1063/1.4993215
   * E. Caldeweyher, S. Ehlert, A. Hansen, H. Neugebauer, S. Spicher,
     C. Bannwarth and S. Grimme, J. Chem. Phys., 2019, 150, 154122.
     DOI: 10.1063/1.5090222
   * E. Caldeweyher, J.-M. Mewes, S. Ehlert and S. Grimme, Phys. Chem. Chem. Phys.
     2020, 22, 8499-8512. DOI: 10.1039/D0CP00502A
   
   for sTDA-xTB:
   * S. Grimme and C. Bannwarth, J. Chem. Phys., 2016, 145, 054103.
     DOI: 10.1063/1.4959605
   
   in the mass-spec context:
   * V. Asgeirsson, C. Bauer and S. Grimme, Chem. Sci., 2017, 8, 4879.
     DOI: 10.1039/c7sc00601b
   * J. Koopman and S. Grimme, ACS Omega 2019, 4, 12, 15120-15133.
     DOI: 10.1021/acsomega.9b02011
   
   for metadynamics refer to:
   * S. Grimme, J. Chem. Theory Comput., 2019, 155, 2847-2862
     DOI: 10.1021/acs.jctc.9b00143
   
   for SPH calculations refer to:
   * S. Spicher and S. Grimme, J. Chem. Theory Comput., 2021, 17, 1701-1714
     DOI: 10.1021/acs.jctc.0c01306
   
   for ONIOM refer to:
   * C. Plett, A. Katbashev, S. Ehlert, S. Grimme, M. Bursch,
     Phys. Chem. Chem. Phys., 2023, 25, 17860-17868. DOI: 10.1039/D3CP02178E
   
   for DIPRO refer to:
   * J. Kohn, N. Gildemeister, S. Grimme, D. Fazzi, A. Hansen,
     J. Chem. Phys., 2023, just accepted.
   
   for PTB refer to:
   * S. Grimme, M. Mueller, A. Hansen, J. Chem. Phys., 2023, 158, 124111.
     DOI: 10.1063/5.0137838
   
   with help from (in alphabetical order)
   P. Atkinson, C. Bannwarth, F. Bohle, G. Brandenburg, E. Caldeweyher
   M. Checinski, S. Dohm, S. Ehlert, S. Ehrlich, I. Gerasimov, C. Hölzer
   A. Katbashev, J. Kohn, J. Koopman, C. Lavigne, S. Lehtola, F. März, M. Müller,
   F. Musil, H. Neugebauer, J. Pisarek, C. Plett, P. Pracht, F. Pultar,
   J. Seibert, P. Shushkov, S. Spicher, M. Stahn, M. Steiner, T. Strunk,
   J. Stückrath, T. Rose, and J. Unsleber
   
 * started run on 2024/12/16 at 21:49:31.635     
   ID    Z sym.   atoms
    1    6 C      1-3, 5-7, 11-16, 18-33, 35-38
    2    7 N      4
    3   15 P      8
    4   16 S      9, 10
    5    8 O      17, 34
    6    1 H      39-77

           -------------------------------------------------
          |                Calculation Setup                |
           -------------------------------------------------

          program call               : xtb --gfn2 --opt extreme -P 8 --charge 1 molecule.xyz
          hostname                   : node05
          coordinate file            : molecule.xyz
          omp threads                :                     8


           -------------------------------------------------
          |                 G F N 2 - x T B                 |
           -------------------------------------------------

        Reference                      10.1021/acs.jctc.8b01176
      * Hamiltonian:
        H0-scaling (s, p, d)           1.850000    2.230000    2.230000
        zeta-weighting                 0.500000
      * Dispersion:
        s8                             2.700000
        a1                             0.520000
        a2                             5.000000
        s9                             5.000000
      * Repulsion:
        kExp                           1.500000    1.000000
        rExp                           1.000000
      * Coulomb:
        alpha                          2.000000
        third order                    shell-resolved
        anisotropic                    true
        a3                             3.000000
        a5                             4.000000
        cn-shift                       1.200000
        cn-exp                         4.000000
        max-rad                        5.000000


          ...................................................
          :                      SETUP                      :
          :.................................................:
          :  # basis functions                 209          :
          :  # atomic orbitals                 206          :
          :  # shells                          118          :
          :  # electrons                       200          :
          :  max. iterations                   250          :
          :  Hamiltonian                  GFN2-xTB          :
          :  restarted?                      false          :
          :  GBSA solvation                  false          :
          :  PC potential                    false          :
          :  electronic temp.          300.0000000     K    :
          :  accuracy                    1.0000000          :
          :  -> integral cutoff          0.2500000E+02      :
          :  -> integral neglect         0.1000000E-07      :
          :  -> SCF convergence          0.1000000E-05 Eh   :
          :  -> wf. convergence          0.1000000E-03 e    :
          :  Broyden damping             0.4000000          :
          :  net charge                          1          :
          :  unpaired electrons                  0          :
          ...................................................

 iter      E             dE          RMSdq      gap      omega  full diag
   1   -109.6195410 -0.109620E+03  0.442E+00    2.62       0.0  T
   2   -109.7641969 -0.144656E+00  0.258E+00    2.77       1.0  T
   3   -109.7705775 -0.638055E-02  0.108E+00    2.54       1.0  T
   4   -109.7841849 -0.136074E-01  0.448E-01    2.31       1.0  T
   5   -109.7882513 -0.406634E-02  0.210E-01    2.43       1.0  T
   6   -109.7899472 -0.169591E-02  0.701E-02    2.41       1.0  T
   7   -109.7900094 -0.622140E-04  0.337E-02    2.43       1.0  T
   8   -109.7900366 -0.272198E-04  0.164E-02    2.42       1.0  T
   9   -109.7900446 -0.804801E-05  0.792E-03    2.43       1.4  T
  10   -109.7900457 -0.103026E-05  0.332E-03    2.42       3.4  T
  11   -109.7900460 -0.373431E-06  0.140E-03    2.42       8.1  T
  12   -109.7900461 -0.404367E-07  0.742E-04    2.42      15.4  T
  13   -109.7900461 -0.121805E-07  0.370E-04    2.42      30.8  T

   *** convergence criteria satisfied after 13 iterations ***

         #    Occupation            Energy/Eh            Energy/eV
      -------------------------------------------------------------
         1        2.0000           -0.8787813             -23.9129
       ...           ...                  ...                  ...
        94        2.0000           -0.5077868             -13.8176
        95        2.0000           -0.5049432             -13.7402
        96        2.0000           -0.5040193             -13.7151
        97        2.0000           -0.4921785             -13.3929
        98        2.0000           -0.4877995             -13.2737
        99        2.0000           -0.4840180             -13.1708
       100        2.0000           -0.4817899             -13.1102 (HOMO)
       101                         -0.3927064             -10.6861 (LUMO)
       102                         -0.3593965              -9.7797
       103                         -0.3557664              -9.6809
       104                         -0.3371559              -9.1745
       105                         -0.3338066              -9.0833
       ...                                ...                  ...
       206                          1.0187036              27.7203
      -------------------------------------------------------------
                  HL-Gap            0.0890835 Eh            2.4241 eV
             Fermi-level           -0.4372482 Eh          -11.8981 eV

 SCC (total)                   0 d,  0 h,  0 min,  2.192 sec
 SCC setup                      ...        0 min,  0.000 sec (  0.017%)
 Dispersion                     ...        0 min,  0.001 sec (  0.065%)
 classical contributions        ...        0 min,  0.000 sec (  0.005%)
 integral evaluation            ...        0 min,  0.007 sec (  0.322%)
 iterations                     ...        0 min,  2.005 sec ( 91.482%)
 molecular gradient             ...        0 min,  0.168 sec (  7.666%)
 printout                       ...        0 min,  0.010 sec (  0.442%)

         :::::::::::::::::::::::::::::::::::::::::::::::::::::
         ::                     SUMMARY                     ::
         :::::::::::::::::::::::::::::::::::::::::::::::::::::
         :: total energy            -108.276008337022 Eh    ::
         :: gradient norm              0.119565951042 Eh/a0 ::
         :: HOMO-LUMO gap              2.424086277123 eV    ::
         ::.................................................::
         :: SCC energy              -109.785542273148 Eh    ::
         :: -> isotropic ES            0.101974694995 Eh    ::
         :: -> anisotropic ES          0.000275070597 Eh    ::
         :: -> anisotropic XC          0.058784559826 Eh    ::
         :: -> dispersion             -0.105324343372 Eh    ::
         :: repulsion energy           1.509533936126 Eh    ::
         :: add. restraining           0.000000000000 Eh    ::
         :: total charge               1.000000000000 e     ::
         :::::::::::::::::::::::::::::::::::::::::::::::::::::

      ----------------------------------------------------------- 
     |                   =====================                   |
     |                        A N C O P T                        |
     |                   =====================                   |
     |               Approximate Normal Coordinate               |
     |                Rational Function Optimizer                |
      ----------------------------------------------------------- 
      ----------------------------------------------------------- 
     |                   =====================                   |
     |                        A N C O P T                        |
     |                   =====================                   |
     |               Approximate Normal Coordinate               |
     |                Rational Function Optimizer                |
      ----------------------------------------------------------- 

          ...................................................
          :                      SETUP                      :
          :.................................................:
          :   optimization level           extreme          :
          :   max. optcycles                  1540          :
          :   ANC micro-cycles                  20          :
          :   degrees of freedom               225          :
          :.................................................:
          :   RF solver                   davidson          :
          :   write xtbopt.log                true          :
          :   linear?                        false          :
          :   energy convergence         0.5000000E-07 Eh   :
          :   grad. convergence          0.5000000E-04 Eh/α :
          :   maxmium RF displ.          1.0000000          :
          :   Hlow (freq-cutoff)         0.1000000E-01      :
          :   Hmax (freq-cutoff)         5.0000000          :
          :   S6 in model hess.         20.0000000          :
          ...................................................

generating ANC from exact Hessian ...
Using Lindh-Hessian (1995)
 Shifting diagonal of input Hessian by    9.9245355143692902E-003
 Lowest  eigenvalues of input Hessian
    0.000000    0.000000    0.000000    0.000000    0.000000    0.000000
    0.010000    0.010047    0.010232    0.010265    0.010310    0.010500
    0.010702    0.010903    0.010950    0.011155    0.011303    0.011660
 Highest eigenvalues
    1.925324    1.925982    1.941874    2.005146    2.080810    2.102134


........................................................................
.............................. CYCLE    1 ..............................
........................................................................

 iter      E             dE          RMSdq      gap      omega  full diag
   1   -109.7900461 -0.109790E+03  0.172E-04    2.42       0.0  T
   2   -109.7900461 -0.162771E-09  0.125E-04    2.42      91.1  T
   3   -109.7900461  0.265032E-10  0.922E-05    2.42     123.6  T
     SCC iter.                  ...        0 min,  0.296 sec
     gradient                   ...        0 min,  0.111 sec
 * total energy  :  -108.2760083 Eh     change       -0.4468021E-08 Eh
   gradient norm :     0.1195653 Eh/α   predicted     0.0000000E+00 (-100.00%)
   displ. norm   :     0.3914501 α      lambda       -0.2218851E-01
   maximum displ.:     0.1184329 α      in ANC's #43, #65, #18, ...

........................................................................
.............................. CYCLE    2 ..............................
........................................................................

 iter      E             dE          RMSdq      gap      omega  full diag
   1   -109.8540592 -0.109854E+03  0.257E-01    2.59       0.0  T
   2   -109.8543517 -0.292521E-03  0.149E-01    2.64       1.0  T
   3   -109.8542028  0.148953E-03  0.709E-02    2.65       1.0  T
   4   -109.8544452 -0.242398E-03  0.279E-02    2.66       1.0  T
   5   -109.8544753 -0.301303E-04  0.107E-02    2.66       1.1  T
   6   -109.8544762 -0.932287E-06  0.601E-03    2.66       1.9  T
   7   -109.8544768 -0.528172E-06  0.367E-03    2.66       3.1  T
   8   -109.8544770 -0.227345E-06  0.216E-03    2.66       5.3  T
   9   -109.8544770 -0.220448E-07  0.105E-03    2.66      10.8  T
  10   -109.8544771 -0.424773E-07  0.498E-04    2.66      22.9  T
  11   -109.8544771 -0.945548E-09  0.175E-04    2.66      65.0  T
     SCC iter.                  ...        0 min,  1.469 sec
     gradient                   ...        0 min,  0.111 sec
 * total energy  :  -108.2913151 Eh     change       -0.1530672E-01 Eh
   gradient norm :     0.0586413 Eh/α   predicted    -0.1281308E-01 ( -16.29%)
   displ. norm   :     0.4014795 α      lambda       -0.8942585E-02
   maximum displ.:     0.1664808 α      in ANC's #18, #43, #22, ...

........................................................................
.............................. CYCLE    3 ..............................
........................................................................

 iter      E             dE          RMSdq      gap      omega  full diag
   1   -109.8972638 -0.109897E+03  0.174E-01    2.75       0.0  T
   2   -109.8973471 -0.833080E-04  0.975E-02    2.76       1.0  T
   3   -109.8972420  0.105141E-03  0.445E-02    2.76       1.0  T
   4   -109.8973898 -0.147765E-03  0.147E-02    2.77       1.0  T
   5   -109.8973947 -0.491787E-05  0.497E-03    2.77       2.3  T
   6   -109.8973948 -0.169542E-06  0.251E-03    2.77       4.5  T
   7   -109.8973950 -0.160211E-06  0.120E-03    2.77       9.5  T
   8   -109.8973950 -0.152950E-07  0.562E-04    2.77      20.3  T
   9   -109.8973950 -0.285344E-08  0.314E-04    2.77      36.3  T
     SCC iter.                  ...        0 min,  1.113 sec
     gradient                   ...        0 min,  0.113 sec
 * total energy  :  -108.2964542 Eh     change       -0.5139178E-02 Eh
   gradient norm :     0.0231443 Eh/α   predicted    -0.5192012E-02 (   1.03%)
   displ. norm   :     0.3434210 α      lambda       -0.2600743E-02
   maximum displ.:     0.2083135 α      in ANC's #18, #19, #22, ...

........................................................................
.............................. CYCLE    4 ..............................
........................................................................

 iter      E             dE          RMSdq      gap      omega  full diag
   1   -109.9021471 -0.109902E+03  0.138E-01    2.78       0.0  T
   2   -109.9021790 -0.319291E-04  0.758E-02    2.79       1.0  T
   3   -109.9021691  0.997911E-05  0.207E-02    2.79       1.0  T
   4   -109.9021805 -0.114732E-04  0.920E-03    2.79       1.2  T
   5   -109.9021848 -0.424269E-05  0.449E-03    2.79       2.5  T
   6   -109.9021850 -0.214715E-06  0.249E-03    2.79       4.6  T
   7   -109.9021851 -0.579764E-07  0.138E-03    2.79       8.3  T
   8   -109.9021851 -0.206632E-07  0.734E-04    2.79      15.5  T
   9   -109.9021851 -0.100896E-07  0.352E-04    2.79      32.4  T
     SCC iter.                  ...        0 min,  0.953 sec
     gradient                   ...        0 min,  0.155 sec
 * total energy  :  -108.2981550 Eh     change       -0.1700793E-02 Eh
   gradient norm :     0.0160980 Eh/α   predicted    -0.1453739E-02 ( -14.53%)
   displ. norm   :     0.4051171 α      lambda       -0.1770431E-02
   maximum displ.:     0.2520295 α      in ANC's #18, #19, #9, ...

........................................................................
.............................. CYCLE    5 ..............................
........................................................................

 iter      E             dE          RMSdq      gap      omega  full diag
   1   -109.9012503 -0.109901E+03  0.983E-02    2.79       0.0  T
   2   -109.9012649 -0.145234E-04  0.503E-02    2.79       1.0  T
   3   -109.9012615  0.339021E-05  0.122E-02    2.79       1.0  T
   4   -109.9012645 -0.300494E-05  0.826E-03    2.79       1.4  T
   5   -109.9012679 -0.346365E-05  0.243E-03    2.79       4.7  T
   6   -109.9012681 -0.129634E-06  0.953E-04    2.79      12.0  T
   7   -109.9012681 -0.253552E-07  0.511E-04    2.79      22.3  T
     SCC iter.                  ...        0 min,  1.093 sec
     gradient                   ...        0 min,  0.112 sec
 * total energy  :  -108.2994338 Eh     change       -0.1278728E-02 Eh
   gradient norm :     0.0122607 Eh/α   predicted    -0.1030496E-02 ( -19.41%)
   displ. norm   :     0.3844158 α      lambda       -0.9992416E-03
   maximum displ.:     0.2357534 α      in ANC's #18, #19, #9, ...

........................................................................
.............................. CYCLE    6 ..............................
........................................................................

 iter      E             dE          RMSdq      gap      omega  full diag
   1   -109.8998048 -0.109900E+03  0.826E-02    2.78       0.0  T
   2   -109.8998145 -0.966614E-05  0.432E-02    2.78       1.0  T
   3   -109.8998104  0.406278E-05  0.113E-02    2.77       1.0  T
   4   -109.8998147 -0.435128E-05  0.717E-03    2.77       1.6  T
   5   -109.8998169 -0.210365E-05  0.173E-03    2.77       6.6  T
   6   -109.8998169 -0.822877E-07  0.744E-04    2.77      15.3  T
   7   -109.8998170 -0.227794E-07  0.346E-04    2.77      32.9  T
     SCC iter.                  ...        0 min,  0.921 sec
     gradient                   ...        0 min,  0.111 sec
 * total energy  :  -108.3001201 Eh     change       -0.6863210E-03 Eh
   gradient norm :     0.0094332 Eh/α   predicted    -0.5734659E-03 ( -16.44%)
   displ. norm   :     0.2840741 α      lambda       -0.4315099E-03
   maximum displ.:     0.1597821 α      in ANC's #18, #9, #19, ...

........................................................................
.............................. CYCLE    7 ..............................
........................................................................

 iter      E             dE          RMSdq      gap      omega  full diag
   1   -109.9009116 -0.109901E+03  0.599E-02    2.77       0.0  T
   2   -109.9009160 -0.437149E-05  0.311E-02    2.77       1.0  T
   3   -109.9009151  0.946341E-06  0.815E-03    2.77       1.4  T
   4   -109.9009162 -0.114428E-05  0.431E-03    2.77       2.6  T
   5   -109.9009168 -0.634218E-06  0.120E-03    2.77       9.5  T
   6   -109.9009169 -0.490033E-07  0.373E-04    2.77      30.6  T
   7   -109.9009169 -0.365755E-08  0.180E-04    2.77      63.3  T
     SCC iter.                  ...        0 min,  0.663 sec
     gradient                   ...        0 min,  0.142 sec
 * total energy  :  -108.3004284 Eh     change       -0.3082931E-03 Eh
   gradient norm :     0.0077439 Eh/α   predicted    -0.2331662E-03 ( -24.37%)
   displ. norm   :     0.2456892 α      lambda       -0.2793115E-03
   maximum displ.:     0.1111022 α      in ANC's #9, #18, #19, ...

........................................................................
.............................. CYCLE    8 ..............................
........................................................................

 iter      E             dE          RMSdq      gap      omega  full diag
   1   -109.9029161 -0.109903E+03  0.563E-02    2.76       0.0  T
   2   -109.9029208 -0.470816E-05  0.287E-02    2.76       1.0  T
   3   -109.9029197  0.106239E-05  0.839E-03    2.76       1.4  T
   4   -109.9029210 -0.130511E-05  0.424E-03    2.76       2.7  T
   5   -109.9029217 -0.609677E-06  0.138E-03    2.76       8.3  T
   6   -109.9029217 -0.750839E-07  0.493E-04    2.76      23.1  T
   7   -109.9029217 -0.719065E-08  0.292E-04    2.76      39.1  T
     SCC iter.                  ...        0 min,  0.719 sec
     gradient                   ...        0 min,  0.186 sec
 * total energy  :  -108.3006259 Eh     change       -0.1975272E-03 Eh
   gradient norm :     0.0054598 Eh/α   predicted    -0.1481061E-03 ( -25.02%)
   displ. norm   :     0.1987914 α      lambda       -0.1664104E-03
   maximum displ.:     0.0920819 α      in ANC's #9, #5, #4, ...

........................................................................
.............................. CYCLE    9 ..............................
........................................................................

 iter      E             dE          RMSdq      gap      omega  full diag
   1   -109.9044191 -0.109904E+03  0.449E-02    2.76       0.0  T
   2   -109.9044228 -0.365846E-05  0.231E-02    2.76       1.0  T
   3   -109.9044219  0.885281E-06  0.711E-03    2.76       1.6  T
   4   -109.9044230 -0.113113E-05  0.360E-03    2.76       3.2  T
   5   -109.9044234 -0.427229E-06  0.128E-03    2.76       8.9  T
   6   -109.9044235 -0.650516E-07  0.476E-04    2.76      23.9  T
   7   -109.9044235 -0.481258E-08  0.303E-04    2.76      37.6  T
     SCC iter.                  ...        0 min,  0.690 sec
     gradient                   ...        0 min,  0.164 sec
 * total energy  :  -108.3007440 Eh     change       -0.1180476E-03 Eh
   gradient norm :     0.0037045 Eh/α   predicted    -0.8649413E-04 ( -26.73%)
   displ. norm   :     0.1735394 α      lambda       -0.1037558E-03
   maximum displ.:     0.0811149 α      in ANC's #5, #9, #4, ...

........................................................................
.............................. CYCLE   10 ..............................
........................................................................

 iter      E             dE          RMSdq      gap      omega  full diag
   1   -109.9048974 -0.109905E+03  0.331E-02    2.76       0.0  T
   2   -109.9048993 -0.190429E-05  0.170E-02    2.76       1.0  T
   3   -109.9048989  0.335242E-06  0.501E-03    2.76       2.3  T
   4   -109.9048994 -0.467420E-06  0.260E-03    2.76       4.4  T
   5   -109.9048996 -0.195841E-06  0.898E-04    2.76      12.7  T
   6   -109.9048996 -0.320215E-07  0.330E-04    2.76      34.5  T
     SCC iter.                  ...        0 min,  0.803 sec
     gradient                   ...        0 min,  0.153 sec
 * total energy  :  -108.3008209 Eh     change       -0.7695337E-04 Eh
   gradient norm :     0.0034408 Eh/α   predicted    -0.5344533E-04 ( -30.55%)
   displ. norm   :     0.1770430 α      lambda       -0.8462774E-04
   maximum displ.:     0.0920657 α      in ANC's #5, #4, #9, ...

........................................................................
.............................. CYCLE   11 ..............................
........................................................................

 iter      E             dE          RMSdq      gap      omega  full diag
   1   -109.9046845 -0.109905E+03  0.259E-02    2.76       0.0  T
   2   -109.9046854 -0.863539E-06  0.137E-02    2.76       1.0  T
   3   -109.9046852  0.191420E-06  0.383E-03    2.76       3.0  T
   4   -109.9046855 -0.277899E-06  0.182E-03    2.76       6.2  T
   5   -109.9046855 -0.775685E-07  0.559E-04    2.76      20.4  T
   6   -109.9046856 -0.133187E-07  0.184E-04    2.76      61.8  T
     SCC iter.                  ...        0 min,  0.735 sec
     gradient                   ...        0 min,  0.114 sec
 * total energy  :  -108.3008862 Eh     change       -0.6528143E-04 Eh
   gradient norm :     0.0037279 Eh/α   predicted    -0.4364456E-04 ( -33.14%)
   displ. norm   :     0.1925672 α      lambda       -0.7985868E-04
   maximum displ.:     0.1060184 α      in ANC's #5, #4, #1, ...

........................................................................
.............................. CYCLE   12 ..............................
........................................................................

 iter      E             dE          RMSdq      gap      omega  full diag
   1   -109.9042044 -0.109904E+03  0.252E-02    2.75       0.0  T
   2   -109.9042049 -0.569759E-06  0.135E-02    2.75       1.0  T
   3   -109.9042047  0.244114E-06  0.359E-03    2.75       3.2  T
   4   -109.9042050 -0.319335E-06  0.164E-03    2.75       7.0  T
   5   -109.9042051 -0.715408E-07  0.347E-04    2.75      32.9  T
   6   -109.9042051 -0.499229E-08  0.129E-04    2.75      88.5  T
     SCC iter.                  ...        0 min,  0.605 sec
     gradient                   ...        0 min,  0.113 sec
 * total energy  :  -108.3009490 Eh     change       -0.6284537E-04 Eh
   gradient norm :     0.0035548 Eh/α   predicted    -0.4141379E-04 ( -34.10%)
   displ. norm   :     0.2073843 α      lambda       -0.7634697E-04
   maximum displ.:     0.1186284 α      in ANC's #5, #4, #1, ...

........................................................................
.............................. CYCLE   13 ..............................
........................................................................

 iter      E             dE          RMSdq      gap      omega  full diag
   1   -109.9038822 -0.109904E+03  0.271E-02    2.75       0.0  T
   2   -109.9038828 -0.635016E-06  0.148E-02    2.75       1.0  T
   3   -109.9038824  0.392216E-06  0.383E-03    2.75       3.0  T
   4   -109.9038829 -0.480152E-06  0.169E-03    2.75       6.7  T
   5   -109.9038830 -0.924535E-07  0.419E-04    2.75      27.2  T
   6   -109.9038830 -0.706810E-08  0.202E-04    2.75      56.3  T
     SCC iter.                  ...        0 min,  0.931 sec
     gradient                   ...        0 min,  0.144 sec
 * total energy  :  -108.3010097 Eh     change       -0.6064936E-04 Eh
   gradient norm :     0.0029049 Eh/α   predicted    -0.3981705E-04 ( -34.35%)
   displ. norm   :     0.2210343 α      lambda       -0.7146177E-04
   maximum displ.:     0.1278290 α      in ANC's #5, #4, #1, ...

........................................................................
.............................. CYCLE   14 ..............................
........................................................................

 iter      E             dE          RMSdq      gap      omega  full diag
   1   -109.9039005 -0.109904E+03  0.295E-02    2.75       0.0  T
   2   -109.9039012 -0.693690E-06  0.163E-02    2.75       1.0  T
   3   -109.9039009  0.373724E-06  0.384E-03    2.75       3.0  T
   4   -109.9039013 -0.459353E-06  0.174E-03    2.75       6.6  T
   5   -109.9039014 -0.101949E-06  0.424E-04    2.75      26.9  T
   6   -109.9039014 -0.528918E-08  0.215E-04    2.75      53.0  T
     SCC iter.                  ...        0 min,  0.767 sec
     gradient                   ...        0 min,  0.169 sec
 * total energy  :  -108.3010672 Eh     change       -0.5748924E-04 Eh
   gradient norm :     0.0026502 Eh/α   predicted    -0.3748000E-04 ( -34.81%)
   displ. norm   :     0.2449229 α      lambda       -0.7066903E-04
   maximum displ.:     0.1405954 α      in ANC's #5, #4, #1, ...

........................................................................
.............................. CYCLE   15 ..............................
........................................................................

 iter      E             dE          RMSdq      gap      omega  full diag
   1   -109.9041880 -0.109904E+03  0.326E-02    2.75       0.0  T
   2   -109.9041887 -0.648843E-06  0.182E-02    2.75       1.0  T
   3   -109.9041883  0.380360E-06  0.387E-03    2.75       2.9  T
   4   -109.9041887 -0.468583E-06  0.175E-03    2.75       6.5  T
   5   -109.9041888 -0.984206E-07  0.376E-04    2.75      30.3  T
   6   -109.9041889 -0.417903E-08  0.169E-04    2.75      67.5  T
     SCC iter.                  ...        0 min,  0.455 sec
     gradient                   ...        0 min,  0.143 sec
 * total energy  :  -108.3011249 Eh     change       -0.5769009E-04 Eh
   gradient norm :     0.0031735 Eh/α   predicted    -0.3745731E-04 ( -35.07%)
   displ. norm   :     0.2934762 α      lambda       -0.7728701E-04
   maximum displ.:     0.1656249 α      in ANC's #5, #4, #1, ...

........................................................................
.............................. CYCLE   16 ..............................
........................................................................

 iter      E             dE          RMSdq      gap      omega  full diag
   1   -109.9045437 -0.109905E+03  0.383E-02    2.75       0.0  T
   2   -109.9045443 -0.688627E-06  0.215E-02    2.75       1.0  T
   3   -109.9045438  0.523848E-06  0.428E-03    2.75       2.7  T
   4   -109.9045444 -0.629641E-06  0.192E-03    2.75       5.9  T
   5   -109.9045446 -0.116701E-06  0.379E-04    2.75      30.1  T
   6   -109.9045446 -0.536588E-08  0.166E-04    2.75      68.7  T
     SCC iter.                  ...        0 min,  0.896 sec
     gradient                   ...        0 min,  0.175 sec
 * total energy  :  -108.3011879 Eh     change       -0.6300202E-04 Eh
   gradient norm :     0.0036307 Eh/α   predicted    -0.4197395E-04 ( -33.38%)
   displ. norm   :     0.3539876 α      lambda       -0.8375775E-04
   maximum displ.:     0.1959932 α      in ANC's #5, #4, #1, ...

........................................................................
.............................. CYCLE   17 ..............................
........................................................................

 iter      E             dE          RMSdq      gap      omega  full diag
   1   -109.9047781 -0.109905E+03  0.456E-02    2.75       0.0  T
   2   -109.9047790 -0.904730E-06  0.257E-02    2.75       1.0  T
   3   -109.9047782  0.792599E-06  0.505E-03    2.75       2.3  T
   4   -109.9047791 -0.933232E-06  0.224E-03    2.75       5.1  T
   5   -109.9047793 -0.163371E-06  0.510E-04    2.75      22.3  T
   6   -109.9047793 -0.110504E-07  0.237E-04    2.75      48.1  T
     SCC iter.                  ...        0 min,  0.601 sec
     gradient                   ...        0 min,  0.116 sec
 * total energy  :  -108.3012536 Eh     change       -0.6570867E-04 Eh
   gradient norm :     0.0033554 Eh/α   predicted    -0.4712821E-04 ( -28.28%)
   displ. norm   :     0.3595994 α      lambda       -0.7178227E-04
   maximum displ.:     0.1933353 α      in ANC's #5, #4, #1, ...

........................................................................
.............................. CYCLE   18 ..............................
........................................................................

 iter      E             dE          RMSdq      gap      omega  full diag
   1   -109.9048734 -0.109905E+03  0.459E-02    2.75       0.0  T
   2   -109.9048744 -0.918959E-06  0.260E-02    2.75       1.0  T
   3   -109.9048735  0.811645E-06  0.497E-03    2.75       2.3  T
   4   -109.9048745 -0.972194E-06  0.217E-03    2.75       5.2  T
   5   -109.9048747 -0.146309E-06  0.574E-04    2.75      19.9  T
   6   -109.9048747 -0.112811E-07  0.289E-04    2.75      39.5  T
     SCC iter.                  ...        0 min,  0.947 sec
     gradient                   ...        0 min,  0.117 sec
 * total energy  :  -108.3013068 Eh     change       -0.5323093E-04 Eh
   gradient norm :     0.0024153 Eh/α   predicted    -0.4053654E-04 ( -23.85%)
   displ. norm   :     0.2657116 α      lambda       -0.4573130E-04
   maximum displ.:     0.1329747 α      in ANC's #5, #1, #4, ...

........................................................................
.............................. CYCLE   19 ..............................
........................................................................

 iter      E             dE          RMSdq      gap      omega  full diag
   1   -109.9051639 -0.109905E+03  0.338E-02    2.75       0.0  T
   2   -109.9051645 -0.524749E-06  0.193E-02    2.75       1.0  T
   3   -109.9051640  0.448853E-06  0.362E-03    2.75       3.2  T
   4   -109.9051646 -0.559669E-06  0.153E-03    2.75       7.4  T
   5   -109.9051646 -0.619568E-07  0.462E-04    2.75      24.6  T
   6   -109.9051647 -0.532020E-08  0.250E-04    2.75      45.6  T
     SCC iter.                  ...        0 min,  0.495 sec
     gradient                   ...        0 min,  0.111 sec
 * total energy  :  -108.3013408 Eh     change       -0.3396802E-04 Eh
   gradient norm :     0.0017508 Eh/α   predicted    -0.2448141E-04 ( -27.93%)
   displ. norm   :     0.2874231 α      lambda       -0.3341608E-04
   maximum displ.:     0.1382866 α      in ANC's #1, #4, #5, ...

........................................................................
.............................. CYCLE   20 ..............................
........................................................................

 iter      E             dE          RMSdq      gap      omega  full diag
   1   -109.9053642 -0.109905E+03  0.369E-02    2.75       0.0  T
   2   -109.9053648 -0.636240E-06  0.212E-02    2.75       1.0  T
   3   -109.9053642  0.606951E-06  0.396E-03    2.75       2.9  T
   4   -109.9053650 -0.764335E-06  0.158E-03    2.75       7.2  T
   5   -109.9053650 -0.559297E-07  0.532E-04    2.75      21.4  T
   6   -109.9053650 -0.587862E-08  0.308E-04    2.75      37.0  T
     SCC iter.                  ...        0 min,  0.627 sec
     gradient                   ...        0 min,  0.142 sec
 * total energy  :  -108.3013739 Eh     change       -0.3310907E-04 Eh
   gradient norm :     0.0024325 Eh/α   predicted    -0.1732377E-04 ( -47.68%)
   displ. norm   :     0.0883393 α      lambda       -0.2186933E-04
   maximum displ.:     0.0419749 α      in ANC's #1, #7, #2, ...
 * RMSD in coord.:     0.4315546 α      energy gain  -0.2536554E-01 Eh

generating ANC from exact Hessian ...
Using Lindh-Hessian (1995)
 Shifting diagonal of input Hessian by    9.8833975896542373E-003
 Lowest  eigenvalues of input Hessian
    0.000000    0.000000    0.000000    0.000000    0.000000    0.000000
    0.010000    0.010016    0.010225    0.010268    0.010298    0.010517
    0.010704    0.010921    0.011146    0.011159    0.011292    0.011667
 Highest eigenvalues
    2.004334    2.016075    2.024471    2.046706    2.126440    2.259964


........................................................................
.............................. CYCLE   21 ..............................
........................................................................

 iter      E             dE          RMSdq      gap      omega  full diag
   1   -109.9052974 -0.109905E+03  0.114E-02    2.75       0.0  T
   2   -109.9052974 -0.648181E-07  0.647E-03    2.75       1.8  T
   3   -109.9052974  0.813617E-07  0.136E-03    2.75       8.4  T
   4   -109.9052974 -0.908649E-07  0.561E-04    2.75      20.3  T
   5   -109.9052975 -0.126597E-07  0.180E-04    2.75      63.2  T
     SCC iter.                  ...        0 min,  0.537 sec
     gradient                   ...        0 min,  0.111 sec
 * total energy  :  -108.3013937 Eh     change       -0.1981074E-04 Eh
   gradient norm :     0.0021969 Eh/α   predicted     0.0000000E+00 (-100.00%)
   displ. norm   :     0.0284812 α      lambda       -0.7176419E-05
   maximum displ.:     0.0141356 α      in ANC's #7, #2, #20, ...

........................................................................
.............................. CYCLE   22 ..............................
........................................................................

 iter      E             dE          RMSdq      gap      omega  full diag
   1   -109.9050636 -0.109905E+03  0.496E-03    2.75       0.0  T
   2   -109.9050636 -0.388070E-07  0.263E-03    2.75       4.3  T
   3   -109.9050636  0.399984E-08  0.717E-04    2.75      15.9  T
   4   -109.9050636 -0.712916E-08  0.376E-04    2.75      30.3  T
     SCC iter.                  ...        0 min,  0.496 sec
     gradient                   ...        0 min,  0.112 sec
 * total energy  :  -108.3014063 Eh     change       -0.1258187E-04 Eh
   gradient norm :     0.0013123 Eh/α   predicted    -0.7035331E-05 ( -44.08%)
   displ. norm   :     0.2044515 α      lambda       -0.5246847E-04
   maximum displ.:     0.0984924 α      in ANC's #7, #2, #20, ...

........................................................................
.............................. CYCLE   23 ..............................
........................................................................

 iter      E             dE          RMSdq      gap      omega  full diag
   1   -109.9041447 -0.109904E+03  0.317E-02    2.76       0.0  T
   2   -109.9041456 -0.856615E-06  0.179E-02    2.76       1.0  T
   3   -109.9041453  0.283600E-06  0.345E-03    2.76       3.3  T
   4   -109.9041457 -0.367226E-06  0.155E-03    2.76       7.4  T
   5   -109.9041458 -0.831734E-07  0.602E-04    2.76      18.9  T
   6   -109.9041458 -0.304873E-08  0.255E-04    2.76      44.7  T
     SCC iter.                  ...        0 min,  0.713 sec
     gradient                   ...        0 min,  0.116 sec
 * total energy  :  -108.3014411 Eh     change       -0.3479641E-04 Eh
   gradient norm :     0.0037816 Eh/α   predicted    -0.2672312E-04 ( -23.20%)
   displ. norm   :     0.0616006 α      lambda       -0.2514544E-04
   maximum displ.:     0.0308387 α      in ANC's #7, #2, #11, ...

........................................................................
.............................. CYCLE   24 ..............................
........................................................................

 iter      E             dE          RMSdq      gap      omega  full diag
   1   -109.9045099 -0.109905E+03  0.174E-02    2.76       0.0  T
   2   -109.9045105 -0.607328E-06  0.801E-03    2.76       1.4  T
   3   -109.9045105 -0.349275E-07  0.236E-03    2.76       4.8  T
   4   -109.9045105  0.372977E-08  0.123E-03    2.76       9.3  T
   5   -109.9045106 -0.412057E-07  0.585E-04    2.76      19.5  T
   6   -109.9045106 -0.653691E-08  0.287E-04    2.76      39.7  T
     SCC iter.                  ...        0 min,  0.830 sec
     gradient                   ...        0 min,  0.111 sec
 * total energy  :  -108.3014564 Eh     change       -0.1536112E-04 Eh
   gradient norm :     0.0034264 Eh/α   predicted    -0.1262392E-04 ( -17.82%)
   displ. norm   :     0.0718844 α      lambda       -0.2559829E-04
   maximum displ.:     0.0357593 α      in ANC's #2, #7, #11, ...

........................................................................
.............................. CYCLE   25 ..............................
........................................................................

 iter      E             dE          RMSdq      gap      omega  full diag
   1   -109.9052167 -0.109905E+03  0.101E-02    2.76       0.0  T
   2   -109.9052168 -0.107005E-06  0.557E-03    2.76       2.0  T
   3   -109.9052167  0.536050E-07  0.152E-03    2.76       7.5  T
   4   -109.9052168 -0.690219E-07  0.631E-04    2.76      18.1  T
   5   -109.9052168 -0.935853E-08  0.189E-04    2.76      60.4  T
     SCC iter.                  ...        0 min,  0.449 sec
     gradient                   ...        0 min,  0.111 sec
 * total energy  :  -108.3014779 Eh     change       -0.2151396E-04 Eh
   gradient norm :     0.0020351 Eh/α   predicted    -0.1286688E-04 ( -40.19%)
   displ. norm   :     0.1937992 α      lambda       -0.4783390E-04
   maximum displ.:     0.0967321 α      in ANC's #2, #7, #11, ...

........................................................................
.............................. CYCLE   26 ..............................
........................................................................

 iter      E             dE          RMSdq      gap      omega  full diag
   1   -109.9058441 -0.109906E+03  0.245E-02    2.75       0.0  T
   2   -109.9058446 -0.481330E-06  0.139E-02    2.75       1.0  T
   3   -109.9058442  0.355340E-06  0.350E-03    2.75       3.3  T
   4   -109.9058447 -0.446600E-06  0.127E-03    2.75       8.9  T
   5   -109.9058447 -0.319733E-07  0.460E-04    2.75      24.8  T
   6   -109.9058447 -0.108242E-07  0.178E-04    2.75      64.2  T
     SCC iter.                  ...        0 min,  0.651 sec
     gradient                   ...        0 min,  0.111 sec
 * total energy  :  -108.3015112 Eh     change       -0.3322319E-04 Eh
   gradient norm :     0.0018454 Eh/α   predicted    -0.2482204E-04 ( -25.29%)
   displ. norm   :     0.2686335 α      lambda       -0.2416155E-04
   maximum displ.:     0.1371835 α      in ANC's #2, #7, #1, ...

........................................................................
.............................. CYCLE   27 ..............................
........................................................................

 iter      E             dE          RMSdq      gap      omega  full diag
   1   -109.9054746 -0.109905E+03  0.312E-02    2.76       0.0  T
   2   -109.9054750 -0.476575E-06  0.177E-02    2.75       1.0  T
   3   -109.9054746  0.406443E-06  0.366E-03    2.76       3.1  T
   4   -109.9054751 -0.480111E-06  0.148E-03    2.75       7.7  T
   5   -109.9054752 -0.647071E-07  0.452E-04    2.76      25.2  T
   6   -109.9054752 -0.123147E-07  0.187E-04    2.76      60.9  T
     SCC iter.                  ...        0 min,  0.517 sec
     gradient                   ...        0 min,  0.168 sec
 * total energy  :  -108.3015353 Eh     change       -0.2408748E-04 Eh
   gradient norm :     0.0027002 Eh/α   predicted    -0.1246839E-04 ( -48.24%)
   displ. norm   :     0.1029761 α      lambda       -0.1648950E-04
   maximum displ.:     0.0552488 α      in ANC's #2, #1, #7, ...

........................................................................
.............................. CYCLE   28 ..............................
........................................................................

 iter      E             dE          RMSdq      gap      omega  full diag
   1   -109.9053728 -0.109905E+03  0.110E-02    2.76       0.0  T
   2   -109.9053728 -0.373582E-07  0.631E-03    2.76       1.8  T
   3   -109.9053728  0.210549E-07  0.868E-04    2.76      13.1  T
   4   -109.9053728 -0.232877E-07  0.437E-04    2.76      26.1  T
     SCC iter.                  ...        0 min,  0.469 sec
     gradient                   ...        0 min,  0.110 sec
 * total energy  :  -108.3015496 Eh     change       -0.1432643E-04 Eh
   gradient norm :     0.0017770 Eh/α   predicted    -0.8334655E-05 ( -41.82%)
   displ. norm   :     0.2449693 α      lambda       -0.2780872E-04
   maximum displ.:     0.1330816 α      in ANC's #2, #1, #3, ...

........................................................................
.............................. CYCLE   29 ..............................
........................................................................

 iter      E             dE          RMSdq      gap      omega  full diag
   1   -109.9050062 -0.109905E+03  0.247E-02    2.76       0.0  T
   2   -109.9050064 -0.214148E-06  0.143E-02    2.76       1.0  T
   3   -109.9050063  0.697789E-07  0.182E-03    2.76       6.3  T
   4   -109.9050064 -0.100411E-06  0.871E-04    2.76      13.1  T
   5   -109.9050064 -0.266255E-07  0.286E-04    2.76      39.8  T
     SCC iter.                  ...        0 min,  0.766 sec
     gradient                   ...        0 min,  0.114 sec
 * total energy  :  -108.3015766 Eh     change       -0.2705895E-04 Eh
   gradient norm :     0.0016317 Eh/α   predicted    -0.1427562E-04 ( -47.24%)
   displ. norm   :     0.1446583 α      lambda       -0.1157333E-04
   maximum displ.:     0.0796844 α      in ANC's #2, #1, #3, ...

........................................................................
.............................. CYCLE   30 ..............................
........................................................................

 iter      E             dE          RMSdq      gap      omega  full diag
   1   -109.9049697 -0.109905E+03  0.139E-02    2.76       0.0  T
   2   -109.9049698 -0.836143E-07  0.783E-03    2.76       1.5  T
   3   -109.9049698  0.939556E-08  0.118E-03    2.76       9.6  T
   4   -109.9049698 -0.966486E-08  0.616E-04    2.76      18.5  T
   5   -109.9049698 -0.206687E-07  0.159E-04    2.76      71.7  T
     SCC iter.                  ...        0 min,  0.418 sec
     gradient                   ...        0 min,  0.111 sec
 * total energy  :  -108.3015916 Eh     change       -0.1493389E-04 Eh
   gradient norm :     0.0017826 Eh/α   predicted    -0.5844134E-05 ( -60.87%)
   displ. norm   :     0.1598781 α      lambda       -0.1743104E-04
   maximum displ.:     0.0901300 α      in ANC's #1, #2, #3, ...

........................................................................
.............................. CYCLE   31 ..............................
........................................................................

 iter      E             dE          RMSdq      gap      omega  full diag
   1   -109.9055335 -0.109906E+03  0.154E-02    2.76       0.0  T
   2   -109.9055337 -0.168890E-06  0.845E-03    2.76       1.3  T
   3   -109.9055337  0.187068E-07  0.160E-03    2.76       7.1  T
   4   -109.9055337 -0.162746E-07  0.842E-04    2.76      13.5  T
   5   -109.9055338 -0.400251E-07  0.215E-04    2.76      53.1  T
     SCC iter.                  ...        0 min,  0.477 sec
     gradient                   ...        0 min,  0.113 sec
 * total energy  :  -108.3016130 Eh     change       -0.2143445E-04 Eh
   gradient norm :     0.0010853 Eh/α   predicted    -0.8815372E-05 ( -58.87%)
   displ. norm   :     0.2053726 α      lambda       -0.1897355E-04
   maximum displ.:     0.1190594 α      in ANC's #1, #2, #3, ...

........................................................................
.............................. CYCLE   32 ..............................
........................................................................

 iter      E             dE          RMSdq      gap      omega  full diag
   1   -109.9054635 -0.109905E+03  0.205E-02    2.76       0.0  T
   2   -109.9054638 -0.352529E-06  0.109E-02    2.76       1.0  T
   3   -109.9054638  0.276870E-07  0.236E-03    2.76       4.8  T
   4   -109.9054638 -0.161732E-07  0.127E-03    2.76       9.0  T
   5   -109.9054639 -0.893531E-07  0.284E-04    2.76      40.2  T
   6   -109.9054639 -0.142136E-08  0.155E-04    2.76      73.4  T
     SCC iter.                  ...        0 min,  0.743 sec
     gradient                   ...        0 min,  0.115 sec
 * total energy  :  -108.3016354 Eh     change       -0.2241369E-04 Eh
   gradient norm :     0.0007315 Eh/α   predicted    -0.9665685E-05 ( -56.88%)
   displ. norm   :     0.1995258 α      lambda       -0.1662112E-04
   maximum displ.:     0.1184322 α      in ANC's #1, #2, #3, ...

........................................................................
.............................. CYCLE   33 ..............................
........................................................................

 iter      E             dE          RMSdq      gap      omega  full diag
   1   -109.9057493 -0.109906E+03  0.181E-02    2.76       0.0  T
   2   -109.9057496 -0.269403E-06  0.977E-03    2.76       1.2  T
   3   -109.9057495  0.690535E-07  0.219E-03    2.76       5.2  T
   4   -109.9057496 -0.779040E-07  0.111E-03    2.76      10.3  T
   5   -109.9057497 -0.516455E-07  0.312E-04    2.76      36.5  T
   6   -109.9057497 -0.524389E-08  0.133E-04    2.76      85.9  T
     SCC iter.                  ...        0 min,  0.622 sec
     gradient                   ...        0 min,  0.112 sec
 * total energy  :  -108.3016562 Eh     change       -0.2074732E-04 Eh
   gradient norm :     0.0012332 Eh/α   predicted    -0.8459178E-05 ( -59.23%)
   displ. norm   :     0.2334298 α      lambda       -0.2054691E-04
   maximum displ.:     0.1393227 α      in ANC's #1, #2, #3, ...

........................................................................
.............................. CYCLE   34 ..............................
........................................................................

 iter      E             dE          RMSdq      gap      omega  full diag
   1   -109.9059075 -0.109906E+03  0.233E-02    2.76       0.0  T
   2   -109.9059080 -0.510039E-06  0.117E-02    2.76       1.0  T
   3   -109.9059079  0.235218E-07  0.287E-03    2.76       4.0  T
   4   -109.9059079  0.941148E-08  0.161E-03    2.76       7.1  T
   5   -109.9059081 -0.136354E-06  0.286E-04    2.76      39.9  T
   6   -109.9059081 -0.499313E-08  0.150E-04    2.76      75.9  T
     SCC iter.                  ...        0 min,  0.751 sec
     gradient                   ...        0 min,  0.111 sec
 * total energy  :  -108.3016833 Eh     change       -0.2709684E-04 Eh
   gradient norm :     0.0015961 Eh/α   predicted    -0.1052495E-04 ( -61.16%)
   displ. norm   :     0.3395455 α      lambda       -0.3144361E-04
   maximum displ.:     0.2026406 α      in ANC's #1, #2, #3, ...

........................................................................
.............................. CYCLE   35 ..............................
........................................................................

 iter      E             dE          RMSdq      gap      omega  full diag
   1   -109.9056748 -0.109906E+03  0.299E-02    2.76       0.0  T
   2   -109.9056757 -0.831294E-06  0.156E-02    2.76       1.0  T
   3   -109.9056755  0.154625E-06  0.395E-03    2.76       2.9  T
   4   -109.9056757 -0.169055E-06  0.206E-03    2.76       5.5  T
   5   -109.9056758 -0.147252E-06  0.591E-04    2.76      19.3  T
   6   -109.9056759 -0.307910E-07  0.190E-04    2.76      60.0  T
     SCC iter.                  ...        0 min,  0.850 sec
     gradient                   ...        0 min,  0.113 sec
 * total energy  :  -108.3017237 Eh     change       -0.4046947E-04 Eh
   gradient norm :     0.0014475 Eh/α   predicted    -0.1653137E-04 ( -59.15%)
   displ. norm   :     0.4147819 α      lambda       -0.3536349E-04
   maximum displ.:     0.2490599 α      in ANC's #1, #2, #3, ...

........................................................................
.............................. CYCLE   36 ..............................
........................................................................

 iter      E             dE          RMSdq      gap      omega  full diag
   1   -109.9055032 -0.109906E+03  0.395E-02    2.76       0.0  T
   2   -109.9055048 -0.154162E-05  0.198E-02    2.76       1.0  T
   3   -109.9055047  0.102348E-06  0.510E-03    2.76       2.2  T
   4   -109.9055048 -0.941944E-07  0.274E-03    2.76       4.2  T
   5   -109.9055051 -0.279966E-06  0.704E-04    2.76      16.2  T
   6   -109.9055051 -0.452903E-07  0.218E-04    2.76      52.3  T
     SCC iter.                  ...        0 min,  0.626 sec
     gradient                   ...        0 min,  0.115 sec
 * total energy  :  -108.3017670 Eh     change       -0.4324486E-04 Eh
   gradient norm :     0.0009905 Eh/α   predicted    -0.1903807E-04 ( -55.98%)
   displ. norm   :     0.3882350 α      lambda       -0.2812391E-04
   maximum displ.:     0.2377793 α      in ANC's #2, #1, #3, ...

........................................................................
.............................. CYCLE   37 ..............................
........................................................................

 iter      E             dE          RMSdq      gap      omega  full diag
   1   -109.9053431 -0.109905E+03  0.354E-02    2.76       0.0  T
   2   -109.9053443 -0.116668E-05  0.181E-02    2.76       1.0  T
   3   -109.9053441  0.142247E-06  0.462E-03    2.76       2.5  T
   4   -109.9053443 -0.121240E-06  0.244E-03    2.76       4.7  T
   5   -109.9053445 -0.221950E-06  0.694E-04    2.76      16.4  T
   6   -109.9053445 -0.434507E-07  0.198E-04    2.76      57.4  T
     SCC iter.                  ...        0 min,  0.796 sec
     gradient                   ...        0 min,  0.113 sec
 * total energy  :  -108.3018006 Eh     change       -0.3358156E-04 Eh
   gradient norm :     0.0007598 Eh/α   predicted    -0.1500531E-04 ( -55.32%)
   displ. norm   :     0.2854495 α      lambda       -0.1930568E-04
   maximum displ.:     0.1791855 α      in ANC's #2, #1, #3, ...

........................................................................
.............................. CYCLE   38 ..............................
........................................................................

 iter      E             dE          RMSdq      gap      omega  full diag
   1   -109.9054684 -0.109905E+03  0.269E-02    2.76       0.0  T
   2   -109.9054690 -0.586080E-06  0.139E-02    2.76       1.0  T
   3   -109.9054689  0.598936E-07  0.335E-03    2.76       3.4  T
   4   -109.9054689 -0.190561E-07  0.177E-03    2.76       6.4  T
   5   -109.9054691 -0.143590E-06  0.481E-04    2.76      23.7  T
   6   -109.9054691 -0.198161E-07  0.169E-04    2.76      67.5  T
     SCC iter.                  ...        0 min,  0.649 sec
     gradient                   ...        0 min,  0.111 sec
 * total energy  :  -108.3018243 Eh     change       -0.2374927E-04 Eh
   gradient norm :     0.0008245 Eh/α   predicted    -0.1000617E-04 ( -57.87%)
   displ. norm   :     0.2397738 α      lambda       -0.1714740E-04
   maximum displ.:     0.1545656 α      in ANC's #2, #1, #3, ...

........................................................................
.............................. CYCLE   39 ..............................
........................................................................

 iter      E             dE          RMSdq      gap      omega  full diag
   1   -109.9056518 -0.109906E+03  0.223E-02    2.76       0.0  T
   2   -109.9056521 -0.307775E-06  0.120E-02    2.76       1.0  T
   3   -109.9056520  0.698791E-07  0.253E-03    2.76       4.5  T
   4   -109.9056520 -0.162731E-07  0.137E-03    2.76       8.3  T
   5   -109.9056522 -0.117506E-06  0.364E-04    2.76      31.3  T
   6   -109.9056522 -0.912932E-08  0.161E-04    2.76      70.8  T
     SCC iter.                  ...        0 min,  0.764 sec
     gradient                   ...        0 min,  0.111 sec
 * total energy  :  -108.3018453 Eh     change       -0.2103384E-04 Eh
   gradient norm :     0.0007979 Eh/α   predicted    -0.8794133E-05 ( -58.19%)
   displ. norm   :     0.2288170 α      lambda       -0.1577832E-04
   maximum displ.:     0.1490177 α      in ANC's #2, #1, #3, ...

........................................................................
.............................. CYCLE   40 ..............................
........................................................................

 iter      E             dE          RMSdq      gap      omega  full diag
   1   -109.9057373 -0.109906E+03  0.221E-02    2.76       0.0  T
   2   -109.9057376 -0.269055E-06  0.120E-02    2.76       1.0  T
   3   -109.9057375  0.824176E-07  0.238E-03    2.76       4.8  T
   4   -109.9057375 -0.906047E-08  0.139E-03    2.76       8.2  T
   5   -109.9057376 -0.143164E-06  0.321E-04    2.76      35.6  T
   6   -109.9057376 -0.290287E-08  0.195E-04    2.76      58.3  T
     SCC iter.                  ...        0 min,  0.733 sec
     gradient                   ...        0 min,  0.113 sec
 * total energy  :  -108.3018639 Eh     change       -0.1859517E-04 Eh
   gradient norm :     0.0006537 Eh/α   predicted    -0.8075547E-05 ( -56.57%)
   displ. norm   :     0.2078265 α      lambda       -0.1245316E-04
   maximum displ.:     0.1356692 α      in ANC's #2, #1, #3, ...

........................................................................
.............................. CYCLE   41 ..............................
........................................................................

 iter      E             dE          RMSdq      gap      omega  full diag
   1   -109.9058691 -0.109906E+03  0.200E-02    2.76       0.0  T
   2   -109.9058693 -0.239507E-06  0.108E-02    2.76       1.1  T
   3   -109.9058692  0.964165E-07  0.223E-03    2.76       5.1  T
   4   -109.9058693 -0.589810E-07  0.129E-03    2.76       8.8  T
   5   -109.9058694 -0.105268E-06  0.314E-04    2.76      36.3  T
   6   -109.9058694 -0.178463E-08  0.195E-04    2.76      58.5  T
     SCC iter.                  ...        0 min,  0.551 sec
     gradient                   ...        0 min,  0.113 sec
 * total energy  :  -108.3018787 Eh     change       -0.1476826E-04 Eh
   gradient norm :     0.0005751 Eh/α   predicted    -0.6346971E-05 ( -57.02%)
   displ. norm   :     0.1971760 α      lambda       -0.1129440E-04
   maximum displ.:     0.1283697 α      in ANC's #2, #1, #3, ...

........................................................................
.............................. CYCLE   42 ..............................
........................................................................

 iter      E             dE          RMSdq      gap      omega  full diag
   1   -109.9059991 -0.109906E+03  0.191E-02    2.76       0.0  T
   2   -109.9059993 -0.268258E-06  0.101E-02    2.76       1.1  T
   3   -109.9059992  0.947064E-07  0.230E-03    2.76       5.0  T
   4   -109.9059993 -0.714694E-07  0.132E-03    2.76       8.7  T
   5   -109.9059994 -0.968522E-07  0.318E-04    2.76      35.8  T
   6   -109.9059994 -0.165706E-08  0.190E-04    2.76      59.8  T
     SCC iter.                  ...        0 min,  0.723 sec
     gradient                   ...        0 min,  0.172 sec
 * total energy  :  -108.3018926 Eh     change       -0.1386318E-04 Eh
   gradient norm :     0.0006638 Eh/α   predicted    -0.5749091E-05 ( -58.53%)
   displ. norm   :     0.2234004 α      lambda       -0.1313561E-04
   maximum displ.:     0.1433866 α      in ANC's #2, #1, #9, ...
 * RMSD in coord.:     0.4652352 α      energy gain  -0.5186920E-03 Eh

generating ANC from exact Hessian ...
Using Lindh-Hessian (1995)
 Shifting diagonal of input Hessian by    9.8786530514607378E-003
 Lowest  eigenvalues of input Hessian
    0.000000    0.000000    0.000000    0.000000    0.000000    0.000000
    0.010000    0.010075    0.010225    0.010276    0.010310    0.010532
    0.010687    0.010907    0.011127    0.011316    0.011326    0.011652
 Highest eigenvalues
    2.004080    2.016415    2.024193    2.047741    2.124532    2.280195


........................................................................
.............................. CYCLE   43 ..............................
........................................................................

 iter      E             dE          RMSdq      gap      omega  full diag
   1   -109.9060085 -0.109906E+03  0.220E-02    2.76       0.0  T
   2   -109.9060089 -0.393369E-06  0.114E-02    2.76       1.0  T
   3   -109.9060088  0.122320E-06  0.274E-03    2.76       4.2  T
   4   -109.9060089 -0.110480E-06  0.155E-03    2.76       7.4  T
   5   -109.9060090 -0.117859E-06  0.350E-04    2.76      32.5  T
   6   -109.9060090 -0.213591E-08  0.201E-04    2.76      56.6  T
     SCC iter.                  ...        0 min,  0.914 sec
     gradient                   ...        0 min,  0.147 sec
 * total energy  :  -108.3019085 Eh     change       -0.1592211E-04 Eh
   gradient norm :     0.0008236 Eh/α   predicted     0.0000000E+00 (-100.00%)
   displ. norm   :     0.0255501 α      lambda       -0.3661643E-05
   maximum displ.:     0.0105430 α      in ANC's #17, #2, #7, ...

........................................................................
.............................. CYCLE   44 ..............................
........................................................................

 iter      E             dE          RMSdq      gap      omega  full diag
   1   -109.9060001 -0.109906E+03  0.441E-03    2.76       0.0  T
   2   -109.9060001 -0.183399E-07  0.237E-03    2.76       4.8  T
   3   -109.9060001  0.503385E-08  0.571E-04    2.76      20.0  T
   4   -109.9060001 -0.460759E-08  0.316E-04    2.76      36.1  T
     SCC iter.                  ...        0 min,  0.397 sec
     gradient                   ...        0 min,  0.114 sec
 * total energy  :  -108.3019141 Eh     change       -0.5653805E-05 Eh
   gradient norm :     0.0004943 Eh/α   predicted    -0.2178411E-05 ( -61.47%)
   displ. norm   :     0.1194164 α      lambda       -0.1562289E-04
   maximum displ.:     0.0485087 α      in ANC's #2, #7, #17, ...

........................................................................
.............................. CYCLE   45 ..............................
........................................................................

 iter      E             dE          RMSdq      gap      omega  full diag
   1   -109.9057603 -0.109906E+03  0.212E-02    2.76       0.0  T
   2   -109.9057607 -0.366468E-06  0.112E-02    2.76       1.0  T
   3   -109.9057607 -0.133750E-07  0.239E-03    2.76       4.8  T
   4   -109.9057607  0.687444E-08  0.109E-03    2.76      10.5  T
   5   -109.9057607 -0.494023E-07  0.369E-04    2.76      30.9  T
   6   -109.9057607 -0.567638E-08  0.170E-04    2.76      66.9  T
     SCC iter.                  ...        0 min,  0.753 sec
     gradient                   ...        0 min,  0.114 sec
 * total energy  :  -108.3019274 Eh     change       -0.1328031E-04 Eh
   gradient norm :     0.0009906 Eh/α   predicted    -0.7865237E-05 ( -40.78%)
   displ. norm   :     0.0842340 α      lambda       -0.8252407E-05
   maximum displ.:     0.0386648 α      in ANC's #7, #2, #5, ...

........................................................................
.............................. CYCLE   46 ..............................
........................................................................

 iter      E             dE          RMSdq      gap      omega  full diag
   1   -109.9057181 -0.109906E+03  0.170E-02    2.76       0.0  T
   2   -109.9057186 -0.534422E-06  0.856E-03    2.76       1.3  T
   3   -109.9057186 -0.106287E-07  0.247E-03    2.76       4.6  T
   4   -109.9057186 -0.193329E-07  0.122E-03    2.76       9.3  T
   5   -109.9057187 -0.288516E-07  0.556E-04    2.76      20.5  T
   6   -109.9057187 -0.106079E-07  0.260E-04    2.76      43.8  T
     SCC iter.                  ...        0 min,  0.596 sec
     gradient                   ...        0 min,  0.111 sec
 * total energy  :  -108.3019296 Eh     change       -0.2185659E-05 Eh
   gradient norm :     0.0012977 Eh/α   predicted    -0.4139372E-05 (  89.39%)
   displ. norm   :     0.0280921 α      lambda       -0.6620296E-05
   maximum displ.:     0.0137897 α      in ANC's #2, #5, #7, ...

........................................................................
.............................. CYCLE   47 ..............................
........................................................................

 iter      E             dE          RMSdq      gap      omega  full diag
   1   -109.9058894 -0.109906E+03  0.790E-03    2.76       0.0  T
   2   -109.9058895 -0.148039E-06  0.366E-03    2.76       3.1  T
   3   -109.9058895 -0.985790E-08  0.113E-03    2.76      10.1  T
   4   -109.9058895 -0.249135E-08  0.511E-04    2.76      22.3  T
   5   -109.9058895 -0.221678E-08  0.253E-04    2.76      45.0  T
     SCC iter.                  ...        0 min,  0.638 sec
     gradient                   ...        0 min,  0.113 sec
 * total energy  :  -108.3019369 Eh     change       -0.7288677E-05 Eh
   gradient norm :     0.0007273 Eh/α   predicted    -0.3313657E-05 ( -54.54%)
   displ. norm   :     0.0678063 α      lambda       -0.7512663E-05
   maximum displ.:     0.0345969 α      in ANC's #2, #7, #5, ...

........................................................................
.............................. CYCLE   48 ..............................
........................................................................

 iter      E             dE          RMSdq      gap      omega  full diag
   1   -109.9060414 -0.109906E+03  0.848E-03    2.76       0.0  T
   2   -109.9060415 -0.114431E-06  0.447E-03    2.76       2.5  T
   3   -109.9060415 -0.693586E-08  0.122E-03    2.76       9.3  T
   4   -109.9060415 -0.498996E-08  0.515E-04    2.76      22.1  T
   5   -109.9060415 -0.320618E-08  0.223E-04    2.76      51.0  T
     SCC iter.                  ...        0 min,  0.380 sec
     gradient                   ...        0 min,  0.111 sec
 * total energy  :  -108.3019455 Eh     change       -0.8567918E-05 Eh
   gradient norm :     0.0004605 Eh/α   predicted    -0.3765871E-05 ( -56.05%)
   displ. norm   :     0.1321444 α      lambda       -0.9340243E-05
   maximum displ.:     0.0676482 α      in ANC's #2, #7, #5, ...

........................................................................
.............................. CYCLE   49 ..............................
........................................................................

 iter      E             dE          RMSdq      gap      omega  full diag
   1   -109.9060345 -0.109906E+03  0.167E-02    2.76       0.0  T
   2   -109.9060348 -0.220038E-06  0.866E-03    2.76       1.3  T
   3   -109.9060348 -0.980680E-08  0.194E-03    2.76       5.9  T
   4   -109.9060348 -0.102100E-07  0.938E-04    2.76      12.1  T
   5   -109.9060348 -0.244913E-07  0.289E-04    2.76      39.4  T
     SCC iter.                  ...        0 min,  0.559 sec
     gradient                   ...        0 min,  0.110 sec
 * total energy  :  -108.3019567 Eh     change       -0.1122634E-04 Eh
   gradient norm :     0.0009629 Eh/α   predicted    -0.4707671E-05 ( -58.07%)
   displ. norm   :     0.2082272 α      lambda       -0.1213331E-04
   maximum displ.:     0.1072179 α      in ANC's #2, #7, #5, ...

........................................................................
.............................. CYCLE   50 ..............................
........................................................................

 iter      E             dE          RMSdq      gap      omega  full diag
   1   -109.9059370 -0.109906E+03  0.253E-02    2.76       0.0  T
   2   -109.9059375 -0.423489E-06  0.133E-02    2.76       1.0  T
   3   -109.9059375  0.157787E-07  0.277E-03    2.76       4.1  T
   4   -109.9059375 -0.337403E-08  0.153E-03    2.76       7.4  T
   5   -109.9059376 -0.110156E-06  0.376E-04    2.76      30.3  T
   6   -109.9059376 -0.285291E-08  0.213E-04    2.76      53.4  T
     SCC iter.                  ...        0 min,  0.577 sec
     gradient                   ...        0 min,  0.111 sec
 * total energy  :  -108.3019713 Eh     change       -0.1463794E-04 Eh
   gradient norm :     0.0012179 Eh/α   predicted    -0.6184400E-05 ( -57.75%)
   displ. norm   :     0.2860144 α      lambda       -0.1407538E-04
   maximum displ.:     0.1480851 α      in ANC's #2, #7, #5, ...

........................................................................
.............................. CYCLE   51 ..............................
........................................................................

 iter      E             dE          RMSdq      gap      omega  full diag
   1   -109.9055755 -0.109906E+03  0.381E-02    2.75       0.0  T
   2   -109.9055766 -0.110611E-05  0.194E-02    2.75       1.0  T
   3   -109.9055765  0.361695E-07  0.437E-03    2.76       2.6  T
   4   -109.9055765 -0.669486E-08  0.244E-03    2.75       4.7  T
   5   -109.9055768 -0.277338E-06  0.665E-04    2.76      17.1  T
   6   -109.9055768 -0.130865E-07  0.364E-04    2.76      31.3  T
     SCC iter.                  ...        0 min,  0.759 sec
     gradient                   ...        0 min,  0.140 sec
 * total energy  :  -108.3019871 Eh     change       -0.1571622E-04 Eh
   gradient norm :     0.0011600 Eh/α   predicted    -0.7294910E-05 ( -53.58%)
   displ. norm   :     0.2516289 α      lambda       -0.1093129E-04
   maximum displ.:     0.1336218 α      in ANC's #2, #7, #5, ...

........................................................................
.............................. CYCLE   52 ..............................
........................................................................

 iter      E             dE          RMSdq      gap      omega  full diag
   1   -109.9056611 -0.109906E+03  0.303E-02    2.75       0.0  T
   2   -109.9056618 -0.740200E-06  0.157E-02    2.75       1.0  T
   3   -109.9056617  0.122709E-06  0.359E-03    2.75       3.2  T
   4   -109.9056617 -0.535412E-07  0.210E-03    2.75       5.4  T
   5   -109.9056620 -0.245097E-06  0.481E-04    2.75      23.7  T
   6   -109.9056620 -0.401890E-08  0.272E-04    2.75      41.9  T
     SCC iter.                  ...        0 min,  0.646 sec
     gradient                   ...        0 min,  0.113 sec
 * total energy  :  -108.3019987 Eh     change       -0.1161640E-04 Eh
   gradient norm :     0.0006892 Eh/α   predicted    -0.5620410E-05 ( -51.62%)
   displ. norm   :     0.1898163 α      lambda       -0.8418026E-05
   maximum displ.:     0.1038318 α      in ANC's #2, #5, #3, ...

........................................................................
.............................. CYCLE   53 ..............................
........................................................................

 iter      E             dE          RMSdq      gap      omega  full diag
   1   -109.9059543 -0.109906E+03  0.267E-02    2.75       0.0  T
   2   -109.9059550 -0.625761E-06  0.132E-02    2.75       1.0  T
   3   -109.9059549  0.502722E-07  0.322E-03    2.75       3.5  T
   4   -109.9059550 -0.575219E-07  0.181E-03    2.75       6.3  T
   5   -109.9059551 -0.135668E-06  0.553E-04    2.75      20.6  T
   6   -109.9059551 -0.982193E-08  0.292E-04    2.75      39.0  T
     SCC iter.                  ...        0 min,  0.616 sec
     gradient                   ...        0 min,  0.150 sec
 * total energy  :  -108.3020079 Eh     change       -0.9238462E-05 Eh
   gradient norm :     0.0004775 Eh/α   predicted    -0.4279237E-05 ( -53.68%)
   displ. norm   :     0.1593766 α      lambda       -0.7285862E-05
   maximum displ.:     0.0908991 α      in ANC's #2, #3, #5, ...

........................................................................
.............................. CYCLE   54 ..............................
........................................................................

 iter      E             dE          RMSdq      gap      omega  full diag
   1   -109.9061479 -0.109906E+03  0.193E-02    2.75       0.0  T
   2   -109.9061483 -0.325669E-06  0.985E-03    2.75       1.2  T
   3   -109.9061482  0.932839E-07  0.246E-03    2.75       4.6  T
   4   -109.9061483 -0.941243E-07  0.136E-03    2.75       8.4  T
   5   -109.9061484 -0.866515E-07  0.331E-04    2.75      34.5  T
   6   -109.9061484 -0.227269E-08  0.187E-04    2.75      60.9  T
     SCC iter.                  ...        0 min,  0.501 sec
     gradient                   ...        0 min,  0.142 sec
 * total energy  :  -108.3020162 Eh     change       -0.8313147E-05 Eh
   gradient norm :     0.0006397 Eh/α   predicted    -0.3685267E-05 ( -55.67%)
   displ. norm   :     0.1174088 α      lambda       -0.5735249E-05
   maximum displ.:     0.0685124 α      in ANC's #2, #3, #5, ...

........................................................................
.............................. CYCLE   55 ..............................
........................................................................

 iter      E             dE          RMSdq      gap      omega  full diag
   1   -109.9061266 -0.109906E+03  0.142E-02    2.75       0.0  T
   2   -109.9061268 -0.161492E-06  0.742E-03    2.75       1.5  T
   3   -109.9061267  0.766196E-07  0.189E-03    2.75       6.0  T
   4   -109.9061268 -0.866196E-07  0.973E-04    2.75      11.7  T
   5   -109.9061268 -0.374649E-07  0.264E-04    2.75      43.2  T
     SCC iter.                  ...        0 min,  0.539 sec
     gradient                   ...        0 min,  0.112 sec
 * total energy  :  -108.3020226 Eh     change       -0.6405935E-05 Eh
   gradient norm :     0.0006127 Eh/α   predicted    -0.2885537E-05 ( -54.96%)
   displ. norm   :     0.0889050 α      lambda       -0.3962432E-05
   maximum displ.:     0.0522971 α      in ANC's #2, #3, #1, ...

........................................................................
.............................. CYCLE   56 ..............................
........................................................................

 iter      E             dE          RMSdq      gap      omega  full diag
   1   -109.9061077 -0.109906E+03  0.104E-02    2.75       0.0  T
   2   -109.9061078 -0.847353E-07  0.550E-03    2.75       2.1  T
   3   -109.9061077  0.237467E-07  0.129E-03    2.75       8.8  T
   4   -109.9061078 -0.249886E-07  0.683E-04    2.75      16.7  T
   5   -109.9061078 -0.206885E-07  0.182E-04    2.75      62.6  T
     SCC iter.                  ...        0 min,  0.508 sec
     gradient                   ...        0 min,  0.111 sec
 * total energy  :  -108.3020270 Eh     change       -0.4422581E-05 Eh
   gradient norm :     0.0003939 Eh/α   predicted    -0.1992486E-05 ( -54.95%)
   displ. norm   :     0.0695284 α      lambda       -0.3053754E-05
   maximum displ.:     0.0408580 α      in ANC's #2, #3, #1, ...

........................................................................
.............................. CYCLE   57 ..............................
........................................................................

 iter      E             dE          RMSdq      gap      omega  full diag
   1   -109.9060479 -0.109906E+03  0.749E-03    2.75       0.0  T
   2   -109.9060479 -0.427407E-07  0.399E-03    2.75       2.9  T
   3   -109.9060479  0.463659E-08  0.883E-04    2.75      12.9  T
   4   -109.9060479 -0.344951E-08  0.470E-04    2.75      24.3  T
     SCC iter.                  ...        0 min,  0.459 sec
     gradient                   ...        0 min,  0.111 sec
 * total energy  :  -108.3020308 Eh     change       -0.3794708E-05 Eh
   gradient norm :     0.0002564 Eh/α   predicted    -0.1533029E-05 ( -59.60%)
   displ. norm   :     0.0873128 α      lambda       -0.4283860E-05
   maximum displ.:     0.0487251 α      in ANC's #2, #1, #3, ...

........................................................................
.............................. CYCLE   58 ..............................
........................................................................

 iter      E             dE          RMSdq      gap      omega  full diag
   1   -109.9060350 -0.109906E+03  0.907E-03    2.75       0.0  T
   2   -109.9060350 -0.545451E-07  0.487E-03    2.75       2.3  T
   3   -109.9060350  0.548343E-08  0.102E-03    2.75      11.2  T
   4   -109.9060350  0.892386E-08  0.599E-04    2.75      19.0  T
   5   -109.9060350 -0.270296E-07  0.123E-04    2.75      92.8  T
     SCC iter.                  ...        0 min,  0.635 sec
     gradient                   ...        0 min,  0.169 sec
 * total energy  :  -108.3020362 Eh     change       -0.5388211E-05 Eh
   gradient norm :     0.0004953 Eh/α   predicted    -0.2153018E-05 ( -60.04%)
   displ. norm   :     0.1240828 α      lambda       -0.5630922E-05
   maximum displ.:     0.0690199 α      in ANC's #2, #1, #3, ...

........................................................................
.............................. CYCLE   59 ..............................
........................................................................

 iter      E             dE          RMSdq      gap      omega  full diag
   1   -109.9059692 -0.109906E+03  0.133E-02    2.75       0.0  T
   2   -109.9059693 -0.106757E-06  0.710E-03    2.75       1.6  T
   3   -109.9059693 -0.258149E-08  0.145E-03    2.75       7.9  T
   4   -109.9059693  0.147155E-07  0.754E-04    2.75      15.1  T
   5   -109.9059693 -0.353319E-07  0.154E-04    2.75      74.1  T
     SCC iter.                  ...        0 min,  0.493 sec
     gradient                   ...        0 min,  0.110 sec
 * total energy  :  -108.3020427 Eh     change       -0.6506791E-05 Eh
   gradient norm :     0.0007405 Eh/α   predicted    -0.2838293E-05 ( -56.38%)
   displ. norm   :     0.1072958 α      lambda       -0.3961115E-05
   maximum displ.:     0.0615092 α      in ANC's #2, #1, #3, ...

........................................................................
.............................. CYCLE   60 ..............................
........................................................................

 iter      E             dE          RMSdq      gap      omega  full diag
   1   -109.9059635 -0.109906E+03  0.118E-02    2.75       0.0  T
   2   -109.9059636 -0.920720E-07  0.624E-03    2.75       1.8  T
   3   -109.9059636 -0.677827E-08  0.130E-03    2.75       8.7  T
   4   -109.9059636  0.673298E-08  0.608E-04    2.75      18.8  T
   5   -109.9059636 -0.186393E-07  0.160E-04    2.75      71.4  T
     SCC iter.                  ...        0 min,  0.684 sec
     gradient                   ...        0 min,  0.114 sec
[...]
       100        2.0000           -0.4799960             -13.0614 (HOMO)
       101                         -0.3801898             -10.3455 (LUMO)
       102                         -0.3566038              -9.7037
       103                         -0.3502989              -9.5321
       104                         -0.3395796              -9.2404
       105                         -0.3310350              -9.0079
       106                         -0.3284182              -8.9367
       107                         -0.3256498              -8.8614
       108                         -0.3218743              -8.7586
       109                         -0.2883803              -7.8472
       110                         -0.2593261              -7.0566
       111                         -0.2353060              -6.4030
       ...                                ...                  ...
       206                          1.0858952              29.5487
      -------------------------------------------------------------
                  HL-Gap            0.0998062 Eh            2.7159 eV
             Fermi-level           -0.4300929 Eh          -11.7034 eV

     #   Z          covCN         q      C6AA      α(0)
     1   6 C        3.753    -0.126    22.980     6.836
     2   6 C        4.028     0.047    19.703     6.305
     3   6 C        3.755    -0.122    22.892     6.822
     4   7 N        2.681    -0.171    24.697     7.381
     5   6 C        3.926     0.045    19.762     6.318
     6   6 C        3.759    -0.128    23.004     6.838
     7   6 C        3.755    -0.125    22.950     6.831
     8  15 P        4.523     0.570   137.317    21.050
     9  16 S        1.900    -0.056   143.351    20.152
    10  16 S        2.085    -0.029   142.268    20.075
    11   6 C        2.973     0.037    27.173     8.551
    12   6 C        2.944    -0.031    28.771     8.797
    13   6 C        2.923    -0.022    28.555     8.763
    14   6 C        2.919    -0.025    28.618     8.773
    15   6 C        2.922    -0.023    28.570     8.765
    16   6 C        2.976    -0.034    28.832     8.808
    17   8 O        1.657    -0.276    18.600     5.822
    18   6 C        3.223     0.118    24.720     8.081
    19   6 C        2.913    -0.055    29.359     8.885
    20   6 C        2.930    -0.041    29.010     8.833
    21   6 C        2.969     0.015    27.671     8.628
    22   6 C        2.975     0.012    27.740     8.639
    23   6 C        2.978    -0.015    28.390     8.740
    24   6 C        2.978    -0.016    28.405     8.742
    25   6 C        3.166     0.118    25.081     8.184
    26   6 C        2.913    -0.050    29.240     8.867
    27   6 C        2.930    -0.038    28.948     8.824
    28   6 C        2.970     0.015    27.678     8.629
    29   6 C        2.975     0.012    27.754     8.641
    30   6 C        3.811    -0.064    21.720     6.634
    31   6 C        3.807    -0.058    21.621     6.619
    32   6 C        3.807    -0.058    21.619     6.619
    33   6 C        3.812    -0.065    21.737     6.636
    34   8 O        1.658    -0.254    18.232     5.764
    35   6 C        3.811    -0.063    21.707     6.632
    36   6 C        3.807    -0.059    21.622     6.619
    37   6 C        3.807    -0.060    21.652     6.624
    38   6 C        3.812    -0.065    21.745     6.637
    39   1 H        0.925     0.048     2.344     2.394
    40   1 H        0.925     0.061     2.186     2.312
    41   1 H        0.925     0.071     2.076     2.253
    42   1 H        0.924     0.050     2.321     2.383
    43   1 H        0.925     0.061     2.185     2.311
    44   1 H        0.925     0.055     2.257     2.350
    45   1 H        0.925     0.068     2.112     2.273
    46   1 H        0.924     0.068     2.113     2.273
    47   1 H        0.925     0.073     2.057     2.243
    48   1 H        0.925     0.057     2.238     2.339
    49   1 H        0.925     0.053     2.277     2.360
    50   1 H        0.925     0.068     2.110     2.272
    51   1 H        0.925     0.054     2.276     2.359
    52   1 H        0.925     0.058     2.223     2.331
    53   1 H        0.926     0.048     2.340     2.392
    54   1 H        0.926     0.055     2.259     2.351
    55   1 H        0.926     0.056     2.246     2.344
    56   1 H        0.926     0.051     2.304     2.374
    57   1 H        0.926     0.048     2.350     2.397
    58   1 H        0.926     0.059     2.206     2.323
    59   1 H        0.926     0.061     2.183     2.310
    60   1 H        0.926     0.063     2.166     2.301
    61   1 H        0.926     0.064     2.150     2.293
    62   1 H        0.925     0.053     2.284     2.363
    63   1 H        0.924     0.052     2.297     2.370
    64   1 H        0.924     0.043     2.414     2.430
    65   1 H        0.924     0.043     2.408     2.426
    66   1 H        0.925     0.047     2.360     2.403
    67   1 H        0.924     0.038     2.474     2.460
    68   1 H        0.924     0.054     2.271     2.357
    69   1 H        0.924     0.062     2.177     2.308
    70   1 H        0.924     0.055     2.259     2.351
    71   1 H        0.925     0.053     2.284     2.363
    72   1 H        0.925     0.045     2.382     2.414
    73   1 H        0.924     0.041     2.431     2.438
    74   1 H        0.924     0.042     2.422     2.434
    75   1 H        0.925     0.047     2.354     2.399
    76   1 H        0.924     0.054     2.265     2.353
    77   1 H        0.924     0.062     2.181     2.310

 Mol. C6AA /au·bohr⁶  :      71698.446370
 Mol. C8AA /au·bohr⁸  :    1905285.665606
 Mol. α(0) /au        :        421.081282


Wiberg/Mayer (AO) data.
largest (>0.10) Wiberg bond orders for each atom

 ---------------------------------------------------------------------------
     #   Z sym  total        # sym  WBO       # sym  WBO       # sym  WBO
 ---------------------------------------------------------------------------
     1   6 C    3.986 --     2 C    1.006    40 H    0.980    41 H    0.979
                            39 H    0.975
     2   6 C    3.956 --     1 C    1.006     3 C    1.003    42 H    0.948
                             4 N    0.938
     3   6 C    3.987 --     2 C    1.003    44 H    0.982    43 H    0.980
                            45 H    0.979
     4   7 N    3.382 --     8 P    1.250     2 C    0.938     5 C    0.935
     5   6 C    3.952 --     6 C    1.008     7 C    1.006    46 H    0.955
                             4 N    0.935
     6   6 C    3.989 --     5 C    1.008    49 H    0.979    47 H    0.978
                            48 H    0.970
     7   6 C    3.990 --     5 C    1.006    51 H    0.984    50 H    0.980
                            52 H    0.979
     8  15 P    5.152 --    34 O    1.301    17 O    1.292     4 N    1.250
                             9 S    0.981
     9  16 S    2.425 --    10 S    1.166     8 P    0.981
    10  16 S    2.366 --     9 S    1.166    11 C    0.983
    11   6 C    3.953 --    12 C    1.408    16 C    1.396    10 S    0.983
                            14 C    0.102
    12   6 C    3.990 --    13 C    1.439    11 C    1.408    53 H    0.964
                            15 C    0.109
    13   6 C    3.990 --    12 C    1.439    14 C    1.437    54 H    0.968
                            16 C    0.109
    14   6 C    3.985 --    13 C    1.437    15 C    1.434    55 H    0.969
                            11 C    0.102
    15   6 C    3.988 --    16 C    1.443    14 C    1.434    56 H    0.967
                            12 C    0.109
    16   6 C    3.989 --    15 C    1.443    11 C    1.396    57 H    0.965
                            13 C    0.109
    17   8 O    2.381 --     8 P    1.292    18 C    0.867
    18   6 C    3.874 --    19 C    1.399    23 C    1.374    17 O    0.867
    19   6 C    3.985 --    20 C    1.441    18 C    1.399    58 H    0.963
    20   6 C    3.984 --    19 C    1.441    21 C    1.402    59 H    0.966
                            23 C    0.100
    21   6 C    3.985 --    20 C    1.402    22 C    1.386    38 C    1.016
    22   6 C    3.983 --    21 C    1.386    23 C    1.358    35 C    1.016
    23   6 C    3.985 --    18 C    1.374    22 C    1.358    24 C    1.018
                            20 C    0.100
    24   6 C    3.985 --    25 C    1.375    29 C    1.355    23 C    1.018
                            27 C    0.100
    25   6 C    3.870 --    26 C    1.396    24 C    1.375    34 O    0.874
    26   6 C    3.985 --    27 C    1.445    25 C    1.396    60 H    0.964
    27   6 C    3.985 --    26 C    1.445    28 C    1.399    61 H    0.966
                            24 C    0.100
    28   6 C    3.984 --    27 C    1.399    29 C    1.388    33 C    1.016
    29   6 C    3.984 --    28 C    1.388    24 C    1.355    30 C    1.015
    30   6 C    3.994 --    29 C    1.015    31 C    1.006    62 H    0.961
                            63 H    0.948
    31   6 C    3.996 --    32 C    1.010    30 C    1.006    64 H    0.977
                            65 H    0.976
    32   6 C    3.996 --    31 C    1.010    33 C    1.007    67 H    0.976
                            66 H    0.976
    33   6 C    3.994 --    28 C    1.016    32 C    1.007    68 H    0.966
                            69 H    0.951
    34   8 O    2.412 --     8 P    1.301    25 C    0.874
    35   6 C    3.995 --    22 C    1.016    36 C    1.005    71 H    0.962
                            70 H    0.949
    36   6 C    3.996 --    37 C    1.010    35 C    1.005    73 H    0.977
                            72 H    0.976
    37   6 C    3.996 --    36 C    1.010    38 C    1.007    74 H    0.977
                            75 H    0.976
    38   6 C    3.994 --    21 C    1.016    37 C    1.007    76 H    0.965
                            77 H    0.951
    39   1 H    0.998 --     1 C    0.975
    40   1 H    0.996 --     1 C    0.980
    41   1 H    0.994 --     1 C    0.979
    42   1 H    0.997 --     2 C    0.948
    43   1 H    0.996 --     3 C    0.980
    44   1 H    0.997 --     3 C    0.982
    45   1 H    0.994 --     3 C    0.979
    46   1 H    0.995 --     5 C    0.955
    47   1 H    0.994 --     6 C    0.978
    48   1 H    0.997 --     6 C    0.970
    49   1 H    0.997 --     6 C    0.979
    50   1 H    0.994 --     7 C    0.980
    51   1 H    0.997 --     7 C    0.984
    52   1 H    0.997 --     7 C    0.979
    53   1 H    0.998 --    12 C    0.964
    54   1 H    0.997 --    13 C    0.968
    55   1 H    0.996 --    14 C    0.969
    56   1 H    0.997 --    15 C    0.967
    57   1 H    0.998 --    16 C    0.965
    58   1 H    0.995 --    19 C    0.963
    59   1 H    0.995 --    20 C    0.966
    60   1 H    0.995 --    26 C    0.964
    61   1 H    0.995 --    27 C    0.966
    62   1 H    0.997 --    30 C    0.961
    63   1 H    0.997 --    30 C    0.948
    64   1 H    0.998 --    31 C    0.977
    65   1 H    0.997 --    31 C    0.976
    66   1 H    0.997 --    32 C    0.976
    67   1 H    0.999 --    32 C    0.976
    68   1 H    0.996 --    33 C    0.966
    69   1 H    0.995 --    33 C    0.951
    70   1 H    0.997 --    35 C    0.949
    71   1 H    0.997 --    35 C    0.962
    72   1 H    0.997 --    36 C    0.976
    73   1 H    0.998 --    36 C    0.977
    74   1 H    0.998 --    37 C    0.977
    75   1 H    0.997 --    37 C    0.976
    76   1 H    0.996 --    38 C    0.965
    77   1 H    0.995 --    38 C    0.951
 ---------------------------------------------------------------------------

Topologies differ in total number of bonds
Writing topology from bond orders to xtbtopo.mol

molecular dipole:
                 x           y           z       tot (Debye)
 q only:        0.721      -0.864      -0.335
   full:        0.983      -0.809      -0.381       3.378
molecular quadrupole (traceless):
                xx          xy          yy          xz          yz          zz
 q only:        8.787     -19.982       4.395      -4.737       7.779     -13.182
  q+dip:        6.771     -20.216       3.320      -8.566       4.295     -10.091
   full:        6.728     -18.714       6.014      -7.126       5.545     -12.742

           -------------------------------------------------
          |                Geometry Summary                 |
           -------------------------------------------------

      molecular mass/u    :      564.7620879
   center of mass at/Å    :        0.3906972       0.1986209       0.3028294
  moments of inertia/u·Å² :        0.4503365E+04   0.5246588E+04   0.6945249E+04
rotational constants/cm⁻¹ :        0.3743341E-02   0.3213066E-02   0.2427218E-02

 * 74 selected distances

     #   Z          #   Z                                           value/Å
     1   6 C        2   6 C                                       1.5245268
     2   6 C        3   6 C                                       1.5257156
     2   6 C        4   7 N                                       1.4743961
     4   7 N        5   6 C                                       1.4730546
     5   6 C        6   6 C                                       1.5229099
     5   6 C        7   6 C                                       1.5246080
     4   7 N        8  15 P                                       1.6332110
     8  15 P        9  16 S                                       2.1126172 (max)
     9  16 S       10  16 S                                       2.0429632
    11   6 C       12   6 C                                       1.3838625
    12   6 C       13   6 C                                       1.3838052
    13   6 C       14   6 C                                       1.3850720
    14   6 C       15   6 C                                       1.3854766
    11   6 C       16   6 C                                       1.3866417
    15   6 C       16   6 C                                       1.3834072
     8  15 P       17   8 O                                       1.5801174
    18   6 C       19   6 C                                       1.3796999
    19   6 C       20   6 C                                       1.3816661
    20   6 C       21   6 C                                       1.3913782
    21   6 C       22   6 C                                       1.3960780
    18   6 C       23   6 C                                       1.3878310
    22   6 C       23   6 C                                       1.4022915
    24   6 C       25   6 C                                       1.3877173
    25   6 C       26   6 C                                       1.3812358
    26   6 C       27   6 C                                       1.3802634
    27   6 C       28   6 C                                       1.3920666
    24   6 C       29   6 C                                       1.4026800
    28   6 C       29   6 C                                       1.3957240
    30   6 C       31   6 C                                       1.5244176
    31   6 C       32   6 C                                       1.5221768
    32   6 C       33   6 C                                       1.5242179
     8  15 P       34   8 O                                       1.5743677
    35   6 C       36   6 C                                       1.5243303
    36   6 C       37   6 C                                       1.5223361
    37   6 C       38   6 C                                       1.5243884
     1   6 C       39   1 H                                       1.0891232
     1   6 C       40   1 H                                       1.0866186
     1   6 C       41   1 H                                       1.0865618
     2   6 C       42   1 H                                       1.0970463
     3   6 C       43   1 H                                       1.0862636
     3   6 C       44   1 H                                       1.0870677
     3   6 C       45   1 H                                       1.0863918
     5   6 C       46   1 H                                       1.0919750
     6   6 C       47   1 H                                       1.0869835
     6   6 C       48   1 H                                       1.0873994
     6   6 C       49   1 H                                       1.0880711
     7   6 C       50   1 H                                       1.0865878
     7   6 C       51   1 H                                       1.0870868
     7   6 C       52   1 H                                       1.0855559
    12   6 C       53   1 H                                       1.0800684
    13   6 C       54   1 H                                       1.0790479
    14   6 C       55   1 H                                       1.0787872
    15   6 C       56   1 H                                       1.0796310
    16   6 C       57   1 H                                       1.0793996
    19   6 C       58   1 H                                       1.0776128 (min)
    20   6 C       59   1 H                                       1.0791762
    26   6 C       60   1 H                                       1.0780934
    27   6 C       61   1 H                                       1.0787600
    30   6 C       62   1 H                                       1.0887127
    30   6 C       63   1 H                                       1.0960468
    31   6 C       64   1 H                                       1.0918530
    31   6 C       65   1 H                                       1.0904129
    32   6 C       66   1 H                                       1.0901331
    32   6 C       67   1 H                                       1.0919763
    33   6 C       68   1 H                                       1.0916964
    33   6 C       69   1 H                                       1.0949081
    35   6 C       70   1 H                                       1.0961141
    35   6 C       71   1 H                                       1.0889483
    36   6 C       72   1 H                                       1.0902057
    36   6 C       73   1 H                                       1.0919428
    37   6 C       74   1 H                                       1.0916927
    37   6 C       75   1 H                                       1.0900876
    38   6 C       76   1 H                                       1.0914870
    38   6 C       77   1 H                                       1.0951221

 * 7 distinct bonds (by element types)

   Z      Z             #   av. dist./Å        max./Å        min./Å
   1 H    6 C          39     1.0875551     1.0970463     1.0776128
   6 C    6 C          28     1.4366616     1.5257156     1.3796999
   6 C    7 N           2     1.4737253     1.4743961     1.4730546
   7 N   15 P           1     1.6332110     1.6332110     1.6332110
   8 O   15 P           2     1.5772425     1.5801174     1.5743677
  15 P   16 S           1     2.1126172     2.1126172     2.1126172
  16 S   16 S           1     2.0429632     2.0429632     2.0429632


optimized geometry written to: xtbopt.xyz


           -------------------------------------------------
          | TOTAL ENERGY             -108.303029210308 Eh   |
          | GRADIENT NORM               0.000047800058 Eh/α |
          | HOMO-LUMO GAP               2.715864993319 eV   |
           -------------------------------------------------

------------------------------------------------------------------------
 * finished run on 2024/12/16 at 21:52:10.012     
------------------------------------------------------------------------
 total:
 * wall-time:     0 d,  0 h,  2 min, 38.377 sec
 *  cpu-time:     0 d,  0 h, 20 min, 46.385 sec
 * ratio c/w:     7.870 speedup
 SCF:
 * wall-time:     0 d,  0 h,  0 min,  2.192 sec
 *  cpu-time:     0 d,  0 h,  0 min, 17.311 sec
 * ratio c/w:     7.896 speedup
 ANC optimizer:
 * wall-time:     0 d,  0 h,  2 min, 35.911 sec
 *  cpu-time:     0 d,  0 h, 20 min, 27.576 sec
 * ratio c/w:     7.874 speedup

