80
 energy: -120.459299041935 gnorm: 0.000031878415 xtb: 6.7.1 (edcfbbe)
C           -4.42672592314359       -1.28873473998291       -0.01241508595099
C           -3.46903045109097       -2.47661644052599       -0.06403299181125
C           -3.46003566130303       -3.24926958104994        1.24905150401591
N           -2.09706484070877       -2.12527485522502       -0.50216103741022
C           -1.69704496641881       -2.68122126077042       -1.83813402006057
C           -2.46833286650173       -1.95417459918241       -2.94200409760166
C           -1.99798996574543       -4.18722663530397       -1.90255113774486
C           -0.20145969193954       -2.51364542784595       -2.09723867091591
P           -1.15387244544875       -1.03229785771016        0.30625533710391
S           -2.16637562837444       -0.32973938408885        2.08185944041825
S           -0.86699891628931        1.03094789064216        2.86325212781679
C           -1.37468257442147        2.56274135109465        2.10543886378195
C           -0.37442189165304        3.36112675795432        1.57625948715842
C           -0.72982452219446        4.56610793647674        0.98706736456704
Cl           0.49865088677464        5.56187272890996        0.31171974115536
C           -2.05828851624313        4.96184838489790        0.91766219415992
C           -3.03896696389215        4.14107283738910        1.45983738024094
Cl          -4.68888955136635        4.61924769918905        1.37964094155023
C           -2.70764637247509        2.93745380231359        2.06645634656310
N            0.28359947670510       -1.73629874721254        0.76669458844458
C            0.21230507159164       -3.12438793381049        1.21688358792310
C            1.16724220402852       -0.88205105622621        1.50439797736890
C            1.42839047668874       -1.12571281567862        2.86694050832572
C            2.22486278905378       -0.27796889982923        3.57965245058475
C            2.75210651011826        0.88709033503861        2.98783414404280
C            3.49864984967722        1.82181875258249        3.73454405100973
C            3.97107100736634        2.96379546230170        3.15144846314327
C            3.70905592176486        3.21980599641568        1.79721711856466
C            3.00191907709914        2.32504561329392        1.04206223011814
C            2.51539919877788        1.12563832977608        1.60916231142614
C            1.75881945300531        0.18002919884087        0.85694281953244
C            1.64786657888249        0.36542496221041       -0.60037376500681
C            0.42999178360877        0.55889156709925       -1.21489225779872
C            0.36635581128169        0.93148018051717       -2.57343265431637
C            1.50746823086150        1.05515314636893       -3.31065747821648
C            2.76654019335081        0.76022385834454       -2.75034622761370
C            3.94799820721735        0.81591038607281       -3.51779295740978
C            5.15628772781894        0.50530827657670       -2.96036604812076
C            5.22821818832210        0.11388225598229       -1.61520263180626
C            4.10147037614844        0.06192184017488       -0.84213280415155
C            2.84107710905935        0.40010364941485       -1.37980245069713
N           -0.77248790633761        0.39607157880863       -0.46650758351313
C           -1.90193483440216        1.24549434029626       -0.82957909114234
H           -5.44798234170704       -1.66176711467835       -0.00152738409509
H           -4.28461712369202       -0.69420501659066        0.88447434888822
H           -4.30821721531379       -0.65452721997691       -0.88694384529581
H           -3.84970947796993       -3.14867487199159       -0.83167461307578
H           -2.85269980120771       -4.14665434797530        1.16635649670298
H           -4.47533755832771       -3.54831126092413        1.49469963234961
H           -3.08228037062183       -2.63850793474619        2.06461725275518
H           -3.54036616590502       -1.98215680934538       -2.76854381256274
H           -2.27087977891861       -2.43180977237394       -3.89787640075297
H           -2.14940576657046       -0.91721496847736       -3.01088908717030
H           -3.03942562414960       -4.40043313004468       -2.12559343386091
H           -1.40453645191339       -4.62784538323126       -2.69906699462357
H           -1.73288913305745       -4.68602738201533       -0.97427341492673
H            0.39687029223204       -3.16272542598607       -1.46592107051047
H            0.13038351847993       -1.48981180980346       -1.96529223294579
H            0.00083318046408       -2.78414579538999       -3.13144292871266
H            0.65823725676124        3.05477702792546        1.62508098908987
H           -2.32660398580753        5.89659405393341        0.45323661670666
H           -3.47404002761684        2.31132122288311        2.49596843045250
H           -0.35022210672405       -3.70591918481348        0.49209073990619
H           -0.27060191953994       -3.23786522121517        2.19007554309669
H            1.22833067897741       -3.51261720952314        1.27581171642905
H            0.99517082550780       -1.98098394367471        3.35795158115341
H            2.43435830505456       -0.47729483028007        4.61908956158203
H            3.67942658500263        1.61959495642012        4.77949160706215
H            4.53872896549608        3.67787449635885        3.72750350500302
H            4.06645420218114        4.13523363170039        1.35109356554066
H            2.79843641166842        2.54149648328142        0.00430151162671
H           -0.58758935078433        1.12692293333751       -3.03507985116233
H            1.45327601538784        1.36111617642550       -4.34415274321423
H            3.87550734349242        1.10194125980465       -4.55643781074754
H            6.05823900162752        0.54886174326211       -3.55089725795826
H            6.18452058620101       -0.15152614147342       -1.19122857975844
H            4.16981024345788       -0.25248393143831        0.18785426067835
H           -2.65043833191310        1.21648334652238       -0.03853542310695
H           -2.38575009788446        0.93951773726828       -1.75979703848186
H           -1.54826442163073        2.27088375232810       -0.93318342376372
