87
 energy: -133.519347174800 gnorm: 0.000085555839 xtb: 6.7.1 (edcfbbe)
C            1.19102677563781       -2.58977186664434        1.63209921441057
N            0.95397302174292       -1.33407452258790        0.92587330129482
C            1.69472904866085       -0.20391384365475        1.40184256829049
C            2.07014040858721       -0.10729926103556        2.75624269049424
C            2.73518244085038        0.99266224197165        3.21309578342630
C            3.01001094837920        2.07789681946852        2.35787878631679
C            3.62037466779745        3.25631139264818        2.83451135705434
C            3.84666395712271        4.31289401191218        1.99834475037335
C            3.46206397089986        4.23496137406543        0.65158923935946
C            2.88129497752664        3.10025259429235        0.15597969218853
C            2.65293599519899        1.98135182995799        0.98802050704900
C            2.03864061789242        0.78726166101677        0.50924056455116
C            1.78821410766191        0.65742270079249       -0.93689226307836
C            0.50940619001768        0.52905543747350       -1.43652333333566
C            0.27255775829398        0.63393068879576       -2.82276769682419
C            1.31214901118491        0.79328422414186       -3.69210717807572
C            2.64467786566100        0.80500847816155       -3.23305248619705
C            3.73377568501974        0.89318432684805       -4.12411830345778
C            5.01800288971159        0.88809479950864       -3.65726620110745
C            5.26392325550143        0.78383651194973       -2.27998911638830
C            4.22856177262763        0.70847740419325       -1.39007503002752
C            2.89012516066996        0.73213276955400       -1.83726169830649
N           -0.57477663893441        0.30475893611339       -0.54219552633323
C           -1.87700529363769        0.84555391912651       -0.91808198699735
P           -0.62660490868267       -1.00056015853027        0.49879590739090
S           -1.55867071403472       -0.13516719658600        2.25002086864495
S           -0.54402414749664        1.60684881305220        2.52568324295450
C           -1.46284473027682        2.88810008631522        1.67830225610044
C           -0.68998019573437        3.67987355581627        0.83705186713183
C           -1.24799271236902        4.76135313495027        0.18068842656107
C           -2.59133355661550        5.05304863171389        0.34992336770046
C           -3.36670493931268        4.27164591043394        1.18801831345991
C           -2.80935696449551        3.19566702120605        1.87144251988812
C           -3.72260104547323        2.38614391131414        2.75615119985752
F           -3.14125113190930        1.92499975281579        3.86804768180635
F           -4.19529179260958        1.29974995626388        2.09559703831607
F           -4.79571747796913        3.07543915939302        3.14301691137680
N           -1.40849473948862       -2.34331879291343       -0.06900520047653
C           -0.91433722652810       -3.03799053004304       -1.29973459041813
C           -1.75902060544317       -2.62182521503386       -2.51177399454788
C            0.53947016384535       -2.70893841929914       -1.64746384891382
C           -0.94029660172321       -4.55080795944758       -1.03547349697265
C           -2.32245415421483       -5.12355140215788       -0.73908981446488
C           -3.26689388265938       -4.05027058619233       -0.20942185258277
C           -2.61895375869743       -2.91745827758881        0.60762265156373
C           -3.71986415244345       -1.86008299190061        0.75313275374059
C           -2.21422166890597       -3.44968893417574        1.98081979878977
H            0.85465038126081       -2.57350162105593        2.67100637794927
H            0.66134769648058       -3.39022808272937        1.12357270818655
H            2.26111513209061       -2.79395153861818        1.60988364447341
H            1.82970841831411       -0.89981381691853        3.44493540584262
H            3.03226229192132        1.05431701018569        4.24846725072675
H            3.89652088160550        3.30778225155327        3.87685860174808
H            4.31264084401733        5.21330277158775        2.36725621632432
H            3.62641351665939        5.08224989878805        0.00331784484128
H            2.58400766028358        3.05921735727933       -0.88109246128473
H           -0.73602178990990        0.59711032878309       -3.20110239499211
H            1.12253004333608        0.89052799828554       -4.75015758907466
H            3.53063797895611        0.95682892676222       -5.18270318657077
H            5.84884210823601        0.95454740807149       -4.34241559075729
H            6.28252117725455        0.75936813580602       -1.92428045231292
H            4.43050460738878        0.61671929673716       -0.33400912348964
H           -2.36606452536187        0.26892571933841       -1.70652947436772
H           -2.53515381924013        0.84833762236824       -0.04899305962561
H           -1.74434253990210        1.87304720646890       -1.25661896300987
H            0.35531941883352        3.43998837404639        0.71420028835692
H           -0.63295476926886        5.37026132659948       -0.46315878689283
H           -3.03789368223393        5.89017316282305       -0.16210266852548
H           -4.41073626777958        4.50240413488054        1.33226562280220
H           -1.71042966678729       -3.39121595139212       -3.27722057759437
H           -1.36348193712152       -1.70148106330755       -2.93576185843663
H           -2.80023770158376       -2.45844766803390       -2.26053494053802
H            1.24644665989327       -3.13729920835773       -0.94491463790487
H            0.71989003353608       -1.64268879014032       -1.72212128894030
H            0.75117625858166       -3.13939001950977       -2.62445175485618
H           -0.27851564480544       -4.75110131636642       -0.19049730925116
H           -0.50613514615521       -5.05349082541887       -1.89955837306366
H           -2.75734197786684       -5.55210439054092       -1.64163885706894
H           -2.22482999283576       -5.93400913371210       -0.01676161205892
H           -3.82181603814131       -3.61517784163622       -1.03879377836970
H           -4.00549819832617       -4.51811694313907        0.44202960445481
H           -3.54937887810844       -1.19265842605369        1.58954638698205
H           -4.67055277976426       -2.35477513938777        0.93519933499785
H           -3.81791059197694       -1.27590436008819       -0.15823791989065
H           -3.09896407819115       -3.75683967776395        2.53136354627184
H           -1.71474519434199       -2.67269895127625        2.55734057443763
H           -1.55273653979434       -4.30669526234833        1.88967260896790
