      -----------------------------------------------------------      
     |                   =====================                   |     
     |                           x T B                           |     
     |                   =====================                   |     
     |                         S. Grimme                         |     
     |          Mulliken Center for Theoretical Chemistry        |     
     |                    University of Bonn                     |     
      -----------------------------------------------------------      

   * xtb version 6.7.1 (edcfbbe) compiled by 'conda@3ef47c1a292c' on 2024-11-25

   xtb is free software: you can redistribute it and/or modify it under
   the terms of the GNU Lesser General Public License as published by
   the Free Software Foundation, either version 3 of the License, or
   (at your option) any later version.
   
   xtb is distributed in the hope that it will be useful,
   but WITHOUT ANY WARRANTY; without even the implied warranty of
   MERCHANTABILITY or FITNESS FOR A PARTICULAR PURPOSE.  See the
   GNU Lesser General Public License for more details.
   
   Cite this work as:
   * C. Bannwarth, E. Caldeweyher, S. Ehlert, A. Hansen, P. Pracht,
     J. Seibert, S. Spicher, S. Grimme, WIREs Comput. Mol. Sci., 2020, 11,
     e01493. DOI: 10.1002/wcms.1493
   
   for GFN2-xTB:
   * C. Bannwarth, S. Ehlert and S. Grimme., J. Chem. Theory Comput., 2019,
     15, 1652-1671. DOI: 10.1021/acs.jctc.8b01176
   for GFN1-xTB:
   * S. Grimme, C. Bannwarth, P. Shushkov, J. Chem. Theory Comput., 2017,
     13, 1989-2009. DOI: 10.1021/acs.jctc.7b00118
   for GFN0-xTB:
   * P. Pracht, E. Caldeweyher, S. Ehlert, S. Grimme, ChemRxiv, 2019, preprint.
     DOI: 10.26434/chemrxiv.8326202.v1
   for GFN-FF:
   * S. Spicher and S. Grimme, Angew. Chem. Int. Ed., 2020, 59, 15665-15673.
     DOI: 10.1002/anie.202004239
   
   for ALPB and GBSA implicit solvation:
   * S. Ehlert, M. Stahn, S. Spicher, S. Grimme, J. Chem. Theory Comput.,
     2021, 17, 4250-4261. DOI: 10.1021/acs.jctc.1c00471
   
   for ddCOSMO and CPCM-X implicit solvation:
   * M. Stahn, S. Ehlert, S. Grimme, J. Phys. Chem. A,
     2023, XX, XXXX-XXXX. DOI: 10.1021/acs.jpca.3c04382
   
   for DFT-D4:
   * E. Caldeweyher, C. Bannwarth and S. Grimme, J. Chem. Phys., 2017,
     147, 034112. DOI: 10.1063/1.4993215
   * E. Caldeweyher, S. Ehlert, A. Hansen, H. Neugebauer, S. Spicher,
     C. Bannwarth and S. Grimme, J. Chem. Phys., 2019, 150, 154122.
     DOI: 10.1063/1.5090222
   * E. Caldeweyher, J.-M. Mewes, S. Ehlert and S. Grimme, Phys. Chem. Chem. Phys.
     2020, 22, 8499-8512. DOI: 10.1039/D0CP00502A
   
   for sTDA-xTB:
   * S. Grimme and C. Bannwarth, J. Chem. Phys., 2016, 145, 054103.
     DOI: 10.1063/1.4959605
   
   in the mass-spec context:
   * V. Asgeirsson, C. Bauer and S. Grimme, Chem. Sci., 2017, 8, 4879.
     DOI: 10.1039/c7sc00601b
   * J. Koopman and S. Grimme, ACS Omega 2019, 4, 12, 15120-15133.
     DOI: 10.1021/acsomega.9b02011
   
   for metadynamics refer to:
   * S. Grimme, J. Chem. Theory Comput., 2019, 155, 2847-2862
     DOI: 10.1021/acs.jctc.9b00143
   
   for SPH calculations refer to:
   * S. Spicher and S. Grimme, J. Chem. Theory Comput., 2021, 17, 1701-1714
     DOI: 10.1021/acs.jctc.0c01306
   
   for ONIOM refer to:
   * C. Plett, A. Katbashev, S. Ehlert, S. Grimme, M. Bursch,
     Phys. Chem. Chem. Phys., 2023, 25, 17860-17868. DOI: 10.1039/D3CP02178E
   
   for DIPRO refer to:
   * J. Kohn, N. Gildemeister, S. Grimme, D. Fazzi, A. Hansen,
     J. Chem. Phys., 2023, just accepted.
   
   for PTB refer to:
   * S. Grimme, M. Mueller, A. Hansen, J. Chem. Phys., 2023, 158, 124111.
     DOI: 10.1063/5.0137838
   
   with help from (in alphabetical order)
   P. Atkinson, C. Bannwarth, F. Bohle, G. Brandenburg, E. Caldeweyher
   M. Checinski, S. Dohm, S. Ehlert, S. Ehrlich, I. Gerasimov, C. Hölzer
   A. Katbashev, J. Kohn, J. Koopman, C. Lavigne, S. Lehtola, F. März, M. Müller,
   F. Musil, H. Neugebauer, J. Pisarek, C. Plett, P. Pracht, F. Pultar,
   J. Seibert, P. Shushkov, S. Spicher, M. Stahn, M. Steiner, T. Strunk,
   J. Stückrath, T. Rose, and J. Unsleber
   
 * started run on 2024/12/16 at 17:29:29.619     
   ID    Z sym.   atoms
    1    6 C      1, 3-9, 14-19, 21-41, 43-48
    2    8 O      2
    3   16 S      10, 11
    4   15 P      12
    5    7 N      13, 20, 42
    6    1 H      49-99

           -------------------------------------------------
          |                Calculation Setup                |
           -------------------------------------------------

          program call               : xtb --gfn2 --opt extreme -P 8 --charge 1 molecule.xyz
          hostname                   : node20
          coordinate file            : molecule.xyz
          omp threads                :                     8


           -------------------------------------------------
          |                 G F N 2 - x T B                 |
           -------------------------------------------------

        Reference                      10.1021/acs.jctc.8b01176
      * Hamiltonian:
        H0-scaling (s, p, d)           1.850000    2.230000    2.230000
        zeta-weighting                 0.500000
      * Dispersion:
        s8                             2.700000
        a1                             0.520000
        a2                             5.000000
        s9                             5.000000
      * Repulsion:
        kExp                           1.500000    1.000000
        rExp                           1.000000
      * Coulomb:
        alpha                          2.000000
        third order                    shell-resolved
        anisotropic                    true
        a3                             3.000000
        a5                             4.000000
        cn-shift                       1.200000
        cn-exp                         4.000000
        max-rad                        5.000000


          ...................................................
          :                      SETUP                      :
          :.................................................:
          :  # basis functions                 261          :
          :  # atomic orbitals                 258          :
          :  # shells                          150          :
          :  # electrons                       252          :
          :  max. iterations                   250          :
          :  Hamiltonian                  GFN2-xTB          :
          :  restarted?                      false          :
          :  GBSA solvation                  false          :
          :  PC potential                    false          :
          :  electronic temp.          300.0000000     K    :
          :  accuracy                    1.0000000          :
          :  -> integral cutoff          0.2500000E+02      :
          :  -> integral neglect         0.1000000E-07      :
          :  -> SCF convergence          0.1000000E-05 Eh   :
          :  -> wf. convergence          0.1000000E-03 e    :
          :  Broyden damping             0.4000000          :
          :  net charge                          1          :
          :  unpaired electrons                  0          :
          ...................................................

 iter      E             dE          RMSdq      gap      omega  full diag
   1   -137.1723304 -0.137172E+03  0.414E+00    1.72       0.0  T
   2   -137.3663907 -0.194060E+00  0.250E+00    2.14       1.0  T
   3   -137.3482464  0.181442E-01  0.126E+00    2.07       1.0  T
   4   -137.3710729 -0.228264E-01  0.614E-01    1.80       1.0  T
   5   -137.3971246 -0.260517E-01  0.266E-01    1.92       1.0  T
   6   -137.4000319 -0.290735E-02  0.142E-01    1.88       1.0  T
   7   -137.4016142 -0.158226E-02  0.498E-02    1.89       1.0  T
   8   -137.4016708 -0.566349E-04  0.247E-02    1.90       1.0  T
   9   -137.4016802 -0.941837E-05  0.121E-02    1.90       1.0  T
  10   -137.4016822 -0.196357E-05  0.689E-03    1.90       1.5  T
  11   -137.4016831 -0.915906E-06  0.398E-03    1.90       2.5  T
  12   -137.4016834 -0.293783E-06  0.240E-03    1.90       4.2  T
  13   -137.4016834 -0.312417E-07  0.131E-03    1.90       7.7  T
  14   -137.4016835 -0.647547E-07  0.562E-04    1.90      17.9  T
  15   -137.4016835 -0.399049E-08  0.294E-04    1.90      34.1  T

   *** convergence criteria satisfied after 15 iterations ***

         #    Occupation            Energy/Eh            Energy/eV
      -------------------------------------------------------------
         1        2.0000           -0.8524903             -23.1974
       ...           ...                  ...                  ...
       120        2.0000           -0.4896788             -13.3248
       121        2.0000           -0.4836816             -13.1616
       122        2.0000           -0.4813795             -13.0990
       123        2.0000           -0.4804690             -13.0742
       124        2.0000           -0.4691262             -12.7656
       125        2.0000           -0.4636637             -12.6169
       126        2.0000           -0.4495161             -12.2320 (HOMO)
       127                         -0.3798567             -10.3364 (LUMO)
       128                         -0.3673013              -9.9948
       129                         -0.3499269              -9.5220
       130                         -0.3444472              -9.3729
       131                         -0.3227641              -8.7829
       ...                                ...                  ...
       258                          1.0530894              28.6560
      -------------------------------------------------------------
                  HL-Gap            0.0696594 Eh            1.8955 eV
             Fermi-level           -0.4146864 Eh          -11.2842 eV

 SCC (total)                   0 d,  0 h,  0 min,  2.956 sec
 SCC setup                      ...        0 min,  0.001 sec (  0.018%)
 Dispersion                     ...        0 min,  0.003 sec (  0.087%)
 classical contributions        ...        0 min,  0.000 sec (  0.006%)
 integral evaluation            ...        0 min,  0.011 sec (  0.363%)
 iterations                     ...        0 min,  2.805 sec ( 94.889%)
 molecular gradient             ...        0 min,  0.125 sec (  4.236%)
 printout                       ...        0 min,  0.012 sec (  0.400%)

         :::::::::::::::::::::::::::::::::::::::::::::::::::::
         ::                     SUMMARY                     ::
         :::::::::::::::::::::::::::::::::::::::::::::::::::::
         :: total energy            -135.402370594561 Eh    ::
         :: gradient norm              0.139071385807 Eh/a0 ::
         :: HOMO-LUMO gap              1.895529461313 eV    ::
         ::.................................................::
         :: SCC energy              -137.393315646465 Eh    ::
         :: -> isotropic ES            0.090571078709 Eh    ::
         :: -> anisotropic ES          0.012082144280 Eh    ::
         :: -> anisotropic XC          0.076930639479 Eh    ::
         :: -> dispersion             -0.148578686347 Eh    ::
         :: repulsion energy           1.990945051904 Eh    ::
         :: add. restraining           0.000000000000 Eh    ::
         :: total charge               1.000000000000 e     ::
         :::::::::::::::::::::::::::::::::::::::::::::::::::::

      ----------------------------------------------------------- 
     |                   =====================                   |
     |                        A N C O P T                        |
     |                   =====================                   |
     |               Approximate Normal Coordinate               |
     |                Rational Function Optimizer                |
      ----------------------------------------------------------- 
      ----------------------------------------------------------- 
     |                   =====================                   |
     |                        A N C O P T                        |
     |                   =====================                   |
     |               Approximate Normal Coordinate               |
     |                Rational Function Optimizer                |
      ----------------------------------------------------------- 

          ...................................................
          :                      SETUP                      :
          :.................................................:
          :   optimization level           extreme          :
          :   max. optcycles                  1980          :
          :   ANC micro-cycles                  20          :
          :   degrees of freedom               291          :
          :.................................................:
          :   RF solver                   davidson          :
          :   write xtbopt.log                true          :
          :   linear?                        false          :
          :   energy convergence         0.5000000E-07 Eh   :
          :   grad. convergence          0.5000000E-04 Eh/α :
          :   maxmium RF displ.          1.0000000          :
          :   Hlow (freq-cutoff)         0.1000000E-01      :
          :   Hmax (freq-cutoff)         5.0000000          :
          :   S6 in model hess.         20.0000000          :
          ...................................................

generating ANC from exact Hessian ...
Using Lindh-Hessian (1995)
 Shifting diagonal of input Hessian by    9.9538881253028125E-003
 Lowest  eigenvalues of input Hessian
    0.000000    0.000000    0.000000    0.000000    0.000000    0.000000
    0.010000    0.010041    0.010086    0.010155    0.010288    0.010332
    0.010395    0.010595    0.010675    0.010984    0.011123    0.011172
 Highest eigenvalues
    1.942576    1.991345    2.023572    2.030116    2.067070    2.070603


........................................................................
.............................. CYCLE    1 ..............................
........................................................................

 iter      E             dE          RMSdq      gap      omega  full diag
   1   -137.4016835 -0.137402E+03  0.113E-04    1.90       0.0  T
   2   -137.4016835 -0.834746E-10  0.693E-05    1.90     145.0  T
   3   -137.4016835 -0.188436E-10  0.514E-05    1.90     195.6  T
     SCC iter.                  ...        0 min,  0.487 sec
     gradient                   ...        0 min,  0.126 sec
 * total energy  :  -135.4023706 Eh     change       -0.2837112E-08 Eh
   gradient norm :     0.1390722 Eh/α   predicted     0.0000000E+00 (-100.00%)
   displ. norm   :     0.4343990 α      lambda       -0.3151600E-01
   maximum displ.:     0.0985564 α      in ANC's #56, #67, #28, ...

........................................................................
.............................. CYCLE    2 ..............................
........................................................................

 iter      E             dE          RMSdq      gap      omega  full diag
   1   -137.4856195 -0.137486E+03  0.234E-01    1.97       0.0  T
   2   -137.4858149 -0.195370E-03  0.128E-01    2.04       1.0  T
   3   -137.4857379  0.769867E-04  0.452E-02    2.07       1.0  T
   4   -137.4858198 -0.819475E-04  0.237E-02    2.08       1.0  T
   5   -137.4858538 -0.339407E-04  0.114E-02    2.07       1.0  T
   6   -137.4858586 -0.488851E-05  0.596E-03    2.07       1.7  T
   7   -137.4858596 -0.920592E-06  0.378E-03    2.07       2.7  T
   8   -137.4858598 -0.238860E-06  0.232E-03    2.07       4.3  T
   9   -137.4858599 -0.828251E-07  0.987E-04    2.07      10.2  T
  10   -137.4858599 -0.149322E-07  0.453E-04    2.07      22.2  T
     SCC iter.                  ...        0 min,  1.475 sec
     gradient                   ...        0 min,  0.120 sec
 * total energy  :  -135.4249039 Eh     change       -0.2253330E-01 Eh
   gradient norm :     0.0595914 Eh/α   predicted    -0.1876407E-01 ( -16.73%)
   displ. norm   :     0.4596570 α      lambda       -0.1213366E-01
   maximum displ.:     0.1477483 α      in ANC's #21, #56, #67, ...

........................................................................
.............................. CYCLE    3 ..............................
........................................................................

 iter      E             dE          RMSdq      gap      omega  full diag
   1   -137.5384463 -0.137538E+03  0.181E-01    2.17       0.0  T
   2   -137.5385348 -0.884618E-04  0.953E-02    2.21       1.0  T
   3   -137.5384933  0.415293E-04  0.352E-02    2.22       1.0  T
   4   -137.5385443 -0.509899E-04  0.152E-02    2.22       1.0  T
   5   -137.5385545 -0.102699E-04  0.769E-03    2.22       1.3  T
   6   -137.5385577 -0.313422E-05  0.359E-03    2.22       2.8  T
   7   -137.5385580 -0.350596E-06  0.208E-03    2.22       4.8  T
   8   -137.5385581 -0.536605E-07  0.121E-03    2.22       8.3  T
   9   -137.5385581 -0.244964E-07  0.639E-04    2.22      15.7  T
  10   -137.5385581 -0.435739E-08  0.324E-04    2.22      31.0  T
     SCC iter.                  ...        0 min,  1.787 sec
     gradient                   ...        0 min,  0.163 sec
 * total energy  :  -135.4325582 Eh     change       -0.7654320E-02 Eh
   gradient norm :     0.0144468 Eh/α   predicted    -0.7348668E-02 (  -3.99%)
   displ. norm   :     0.4185448 α      lambda       -0.3126834E-02
   maximum displ.:     0.2093268 α      in ANC's #21, #24, #31, ...

........................................................................
.............................. CYCLE    4 ..............................
........................................................................

 iter      E             dE          RMSdq      gap      omega  full diag
   1   -137.5486370 -0.137549E+03  0.925E-02    2.27       0.0  T
   2   -137.5486571 -0.200390E-04  0.500E-02    2.28       1.0  T
   3   -137.5486436  0.135050E-04  0.177E-02    2.28       1.0  T
   4   -137.5486584 -0.148097E-04  0.773E-03    2.28       1.3  T
   5   -137.5486621 -0.370831E-05  0.322E-03    2.28       3.1  T
   6   -137.5486626 -0.551695E-06  0.155E-03    2.28       6.5  T
   7   -137.5486628 -0.123752E-06  0.537E-04    2.28      18.7  T
   8   -137.5486628 -0.934594E-08  0.270E-04    2.28      37.3  T
     SCC iter.                  ...        0 min,  1.367 sec
     gradient                   ...        0 min,  0.125 sec
 * total energy  :  -135.4348664 Eh     change       -0.2308141E-02 Eh
   gradient norm :     0.0124710 Eh/α   predicted    -0.1837299E-02 ( -20.40%)
   displ. norm   :     0.5098989 α      lambda       -0.2259060E-02
   maximum displ.:     0.2888143 α      in ANC's #21, #8, #7, ...

........................................................................
.............................. CYCLE    5 ..............................
........................................................................

 iter      E             dE          RMSdq      gap      omega  full diag
   1   -137.5533001 -0.137553E+03  0.723E-02    2.29       0.0  T
   2   -137.5533126 -0.124838E-04  0.402E-02    2.29       1.0  T
   3   -137.5533071  0.553376E-05  0.145E-02    2.29       1.0  T
   4   -137.5533150 -0.794033E-05  0.518E-03    2.29       1.9  T
   5   -137.5533155 -0.458961E-06  0.270E-03    2.29       3.7  T
   6   -137.5533158 -0.356505E-06  0.117E-03    2.29       8.6  T
   7   -137.5533159 -0.630305E-07  0.593E-04    2.29      16.9  T
   8   -137.5533159 -0.952053E-08  0.258E-04    2.29      39.0  T
     SCC iter.                  ...        0 min,  1.312 sec
     gradient                   ...        0 min,  0.135 sec
 * total energy  :  -135.4364767 Eh     change       -0.1610371E-02 Eh
   gradient norm :     0.0098808 Eh/α   predicted    -0.1423217E-02 ( -11.62%)
   displ. norm   :     0.5046272 α      lambda       -0.1456487E-02
   maximum displ.:     0.2706481 α      in ANC's #21, #7, #8, ...

........................................................................
.............................. CYCLE    6 ..............................
........................................................................

 iter      E             dE          RMSdq      gap      omega  full diag
   1   -137.5542786 -0.137554E+03  0.823E-02    2.31       0.0  T
   2   -137.5542964 -0.178696E-04  0.396E-02    2.31       1.0  T
   3   -137.5542969 -0.437154E-06  0.115E-02    2.31       1.0  T
   4   -137.5542965  0.399218E-06  0.628E-03    2.31       1.6  T
   5   -137.5542979 -0.141353E-05  0.291E-03    2.31       3.4  T
   6   -137.5542984 -0.466143E-06  0.136E-03    2.31       7.4  T
   7   -137.5542984 -0.818183E-07  0.745E-04    2.31      13.5  T
   8   -137.5542984 -0.307702E-08  0.458E-04    2.31      22.0  T
     SCC iter.                  ...        0 min,  1.397 sec
     gradient                   ...        0 min,  0.125 sec
 * total energy  :  -135.4374683 Eh     change       -0.9915502E-03 Eh
   gradient norm :     0.0069850 Eh/α   predicted    -0.9136935E-03 (  -7.85%)
   displ. norm   :     0.4529437 α      lambda       -0.9474418E-03
   maximum displ.:     0.2073765 α      in ANC's #21, #7, #8, ...

........................................................................
.............................. CYCLE    7 ..............................
........................................................................

 iter      E             dE          RMSdq      gap      omega  full diag
   1   -137.5552899 -0.137555E+03  0.531E-02    2.31       0.0  T
   2   -137.5552947 -0.488342E-05  0.297E-02    2.30       1.0  T
   3   -137.5552937  0.988234E-06  0.711E-03    2.30       1.4  T
   4   -137.5552953 -0.155015E-05  0.297E-03    2.30       3.4  T
   5   -137.5552956 -0.258924E-06  0.126E-03    2.30       8.0  T
   6   -137.5552956 -0.345143E-07  0.635E-04    2.30      15.8  T
   7   -137.5552956 -0.790166E-08  0.348E-04    2.30      28.9  T
     SCC iter.                  ...        0 min,  1.172 sec
     gradient                   ...        0 min,  0.125 sec
 * total energy  :  -135.4381324 Eh     change       -0.6641608E-03 Eh
   gradient norm :     0.0069216 Eh/α   predicted    -0.5709133E-03 ( -14.04%)
   displ. norm   :     0.3905966 α      lambda       -0.6115195E-03
   maximum displ.:     0.1933122 α      in ANC's #7, #8, #10, ...

........................................................................
.............................. CYCLE    8 ..............................
........................................................................

 iter      E             dE          RMSdq      gap      omega  full diag
   1   -137.5570997 -0.137557E+03  0.455E-02    2.31       0.0  T
   2   -137.5571023 -0.264997E-05  0.253E-02    2.31       1.0  T
   3   -137.5571005  0.178623E-05  0.725E-03    2.31       1.4  T
   4   -137.5571027 -0.214774E-05  0.269E-03    2.31       3.7  T
   5   -137.5571030 -0.345607E-06  0.105E-03    2.31       9.5  T
   6   -137.5571030 -0.313645E-07  0.556E-04    2.31      18.1  T
   7   -137.5571030 -0.668936E-08  0.374E-04    2.31      26.9  T
     SCC iter.                  ...        0 min,  1.232 sec
     gradient                   ...        0 min,  0.125 sec
 * total energy  :  -135.4385974 Eh     change       -0.4649728E-03 Eh
   gradient norm :     0.0056513 Eh/α   predicted    -0.3524110E-03 ( -24.21%)
   displ. norm   :     0.4051269 α      lambda       -0.5133616E-03
   maximum displ.:     0.2083256 α      in ANC's #7, #10, #8, ...

........................................................................
.............................. CYCLE    9 ..............................
........................................................................

 iter      E             dE          RMSdq      gap      omega  full diag
   1   -137.5581116 -0.137558E+03  0.467E-02    2.31       0.0  T
   2   -137.5581147 -0.311139E-05  0.251E-02    2.31       1.0  T
   3   -137.5581129  0.186130E-05  0.736E-03    2.31       1.4  T
   4   -137.5581149 -0.204303E-05  0.351E-03    2.31       2.9  T
   5   -137.5581154 -0.515560E-06  0.136E-03    2.31       7.4  T
   6   -137.5581156 -0.150500E-06  0.509E-04    2.31      19.8  T
   7   -137.5581156 -0.189143E-07  0.197E-04    2.31      51.1  T
     SCC iter.                  ...        0 min,  1.077 sec
     gradient                   ...        0 min,  0.126 sec
 * total energy  :  -135.4389868 Eh     change       -0.3894119E-03 Eh
   gradient norm :     0.0041920 Eh/α   predicted    -0.2988197E-03 ( -23.26%)
   displ. norm   :     0.4090832 α      lambda       -0.4083244E-03
   maximum displ.:     0.2072179 α      in ANC's #7, #10, #6, ...

........................................................................
.............................. CYCLE   10 ..............................
........................................................................

 iter      E             dE          RMSdq      gap      omega  full diag
   1   -137.5593264 -0.137559E+03  0.400E-02    2.31       0.0  T
   2   -137.5593280 -0.158257E-05  0.229E-02    2.32       1.0  T
   3   -137.5593266  0.136797E-05  0.558E-03    2.32       1.8  T
   4   -137.5593280 -0.139799E-05  0.263E-03    2.32       3.8  T
   5   -137.5593284 -0.348653E-06  0.115E-03    2.32       8.8  T
   6   -137.5593284 -0.542018E-07  0.597E-04    2.32      16.8  T
   7   -137.5593284 -0.154502E-07  0.357E-04    2.32      28.1  T
     SCC iter.                  ...        0 min,  1.214 sec
     gradient                   ...        0 min,  0.125 sec
 * total energy  :  -135.4392976 Eh     change       -0.3107789E-03 Eh
   gradient norm :     0.0041738 Eh/α   predicted    -0.2383302E-03 ( -23.31%)
   displ. norm   :     0.4110047 α      lambda       -0.3393889E-03
   maximum displ.:     0.2007274 α      in ANC's #7, #6, #10, ...

........................................................................
.............................. CYCLE   11 ..............................
........................................................................

 iter      E             dE          RMSdq      gap      omega  full diag
   1   -137.5593585 -0.137559E+03  0.444E-02    2.31       0.0  T
   2   -137.5593605 -0.204383E-05  0.242E-02    2.31       1.0  T
   3   -137.5593592  0.136338E-05  0.589E-03    2.31       1.7  T
   4   -137.5593602 -0.979304E-06  0.347E-03    2.31       2.9  T
   5   -137.5593610 -0.834649E-06  0.107E-03    2.31       9.4  T
   6   -137.5593611 -0.831159E-07  0.412E-04    2.31      24.4  T
   7   -137.5593611 -0.914227E-08  0.185E-04    2.31      54.2  T
     SCC iter.                  ...        0 min,  1.139 sec
     gradient                   ...        0 min,  0.140 sec
 * total energy  :  -135.4395574 Eh     change       -0.2597694E-03 Eh
   gradient norm :     0.0047816 Eh/α   predicted    -0.1983608E-03 ( -23.64%)
   displ. norm   :     0.3938106 α      lambda       -0.2880764E-03
   maximum displ.:     0.1803357 α      in ANC's #7, #6, #10, ...

........................................................................
.............................. CYCLE   12 ..............................
........................................................................

 iter      E             dE          RMSdq      gap      omega  full diag
   1   -137.5599215 -0.137560E+03  0.425E-02    2.32       0.0  T
   2   -137.5599224 -0.909208E-06  0.249E-02    2.32       1.0  T
   3   -137.5599213  0.106105E-05  0.458E-03    2.32       2.2  T
   4   -137.5599225 -0.122981E-05  0.166E-03    2.32       6.0  T
   5   -137.5599226 -0.101856E-06  0.830E-04    2.32      12.1  T
   6   -137.5599227 -0.414860E-07  0.353E-04    2.32      28.5  T
     SCC iter.                  ...        0 min,  0.963 sec
     gradient                   ...        0 min,  0.127 sec
 * total energy  :  -135.4397756 Eh     change       -0.2181964E-03 Eh
   gradient norm :     0.0045342 Eh/α   predicted    -0.1663769E-03 ( -23.75%)
   displ. norm   :     0.3465811 α      lambda       -0.2288563E-03
   maximum displ.:     0.1677630 α      in ANC's #6, #7, #2, ...

........................................................................
.............................. CYCLE   13 ..............................
........................................................................

 iter      E             dE          RMSdq      gap      omega  full diag
   1   -137.5599730 -0.137560E+03  0.425E-02    2.31       0.0  T
   2   -137.5599738 -0.754184E-06  0.250E-02    2.32       1.0  T
   3   -137.5599729  0.877716E-06  0.407E-03    2.31       2.5  T
   4   -137.5599740 -0.106720E-05  0.131E-03    2.32       7.7  T
   5   -137.5599740 -0.558158E-07  0.707E-04    2.32      14.2  T
   6   -137.5599740 -0.252177E-07  0.334E-04    2.32      30.1  T
     SCC iter.                  ...        0 min,  1.004 sec
     gradient                   ...        0 min,  0.166 sec
 * total energy  :  -135.4399489 Eh     change       -0.1733719E-03 Eh
   gradient norm :     0.0033139 Eh/α   predicted    -0.1281737E-03 ( -26.07%)
   displ. norm   :     0.3078213 α      lambda       -0.1865247E-03
   maximum displ.:     0.1565006 α      in ANC's #6, #2, #7, ...

........................................................................
.............................. CYCLE   14 ..............................
........................................................................

 iter      E             dE          RMSdq      gap      omega  full diag
   1   -137.5602585 -0.137560E+03  0.391E-02    2.32       0.0  T
   2   -137.5602592 -0.733273E-06  0.232E-02    2.32       1.0  T
   3   -137.5602583  0.966868E-06  0.440E-03    2.32       2.3  T
   4   -137.5602594 -0.116326E-05  0.105E-03    2.32       9.6  T
   5   -137.5602595 -0.406256E-07  0.648E-04    2.32      15.5  T
   6   -137.5602595 -0.199200E-07  0.310E-04    2.32      32.4  T
     SCC iter.                  ...        0 min,  1.093 sec
     gradient                   ...        0 min,  0.126 sec
 * total energy  :  -135.4400903 Eh     change       -0.1413359E-03 Eh
   gradient norm :     0.0028919 Eh/α   predicted    -0.1021021E-03 ( -27.76%)
   displ. norm   :     0.2926621 α      lambda       -0.1548241E-03
   maximum displ.:     0.1497221 α      in ANC's #6, #2, #16, ...

........................................................................
.............................. CYCLE   15 ..............................
........................................................................

 iter      E             dE          RMSdq      gap      omega  full diag
   1   -137.5601106 -0.137560E+03  0.353E-02    2.32       0.0  T
   2   -137.5601112 -0.601389E-06  0.210E-02    2.32       1.0  T
   3   -137.5601101  0.111413E-05  0.405E-03    2.32       2.5  T
   4   -137.5601113 -0.123902E-05  0.120E-03    2.32       8.4  T
   5   -137.5601114 -0.881033E-07  0.663E-04    2.32      15.2  T
   6   -137.5601114 -0.171485E-07  0.371E-04    2.32      27.1  T
     SCC iter.                  ...        0 min,  1.043 sec
     gradient                   ...        0 min,  0.129 sec
 * total energy  :  -135.4402073 Eh     change       -0.1169785E-03 Eh
   gradient norm :     0.0034437 Eh/α   predicted    -0.8405183E-04 ( -28.15%)
   displ. norm   :     0.2732341 α      lambda       -0.1246213E-03
   maximum displ.:     0.1392283 α      in ANC's #6, #2, #5, ...

........................................................................
.............................. CYCLE   16 ..............................
........................................................................

 iter      E             dE          RMSdq      gap      omega  full diag
   1   -137.5601508 -0.137560E+03  0.305E-02    2.32       0.0  T
   2   -137.5601513 -0.480190E-06  0.180E-02    2.32       1.0  T
   3   -137.5601503  0.104936E-05  0.380E-03    2.32       2.6  T
   4   -137.5601514 -0.110824E-05  0.127E-03    2.32       7.9  T
   5   -137.5601515 -0.121189E-06  0.600E-04    2.32      16.7  T
   6   -137.5601515 -0.192726E-07  0.271E-04    2.32      37.1  T
     SCC iter.                  ...        0 min,  1.131 sec
     gradient                   ...        0 min,  0.125 sec
 * total energy  :  -135.4403007 Eh     change       -0.9345936E-04 Eh
   gradient norm :     0.0032988 Eh/α   predicted    -0.6696588E-04 ( -28.35%)
   displ. norm   :     0.2468761 α      lambda       -0.9577782E-04
   maximum displ.:     0.1256430 α      in ANC's #6, #5, #2, ...

........................................................................
.............................. CYCLE   17 ..............................
........................................................................

 iter      E             dE          RMSdq      gap      omega  full diag
   1   -137.5600916 -0.137560E+03  0.264E-02    2.33       0.0  T
   2   -137.5600919 -0.300609E-06  0.155E-02    2.33       1.0  T
   3   -137.5600914  0.485832E-06  0.251E-03    2.33       4.0  T
   4   -137.5600919 -0.512768E-06  0.108E-03    2.33       9.3  T
   5   -137.5600920 -0.837433E-07  0.460E-04    2.33      21.8  T
   6   -137.5600920 -0.104625E-07  0.203E-04    2.33      49.5  T
     SCC iter.                  ...        0 min,  1.024 sec
     gradient                   ...        0 min,  0.126 sec
 * total energy  :  -135.4403730 Eh     change       -0.7230405E-04 Eh
   gradient norm :     0.0024447 Eh/α   predicted    -0.5080936E-04 ( -29.73%)
   displ. norm   :     0.2295464 α      lambda       -0.7941247E-04
   maximum displ.:     0.1145402 α      in ANC's #6, #5, #2, ...

........................................................................
.............................. CYCLE   18 ..............................
........................................................................

 iter      E             dE          RMSdq      gap      omega  full diag
   1   -137.5604088 -0.137560E+03  0.237E-02    2.33       0.0  T
   2   -137.5604091 -0.280971E-06  0.138E-02    2.33       1.0  T
   3   -137.5604088  0.273044E-06  0.209E-03    2.33       4.8  T
   4   -137.5604091 -0.306708E-06  0.962E-04    2.33      10.4  T
   5   -137.5604092 -0.541644E-07  0.419E-04    2.33      24.0  T
     SCC iter.                  ...        0 min,  0.884 sec
     gradient                   ...        0 min,  0.125 sec
 * total energy  :  -135.4404347 Eh     change       -0.6169140E-04 Eh
   gradient norm :     0.0019933 Eh/α   predicted    -0.4180154E-04 ( -32.24%)
   displ. norm   :     0.3748949 α      lambda       -0.7959675E-04
   maximum displ.:     0.1802703 α      in ANC's #6, #5, #2, ...

........................................................................
.............................. CYCLE   19 ..............................
........................................................................

 iter      E             dE          RMSdq      gap      omega  full diag
   1   -137.5603656 -0.137560E+03  0.377E-02    2.34       0.0  T
   2   -137.5603665 -0.879126E-06  0.217E-02    2.34       1.0  T
   3   -137.5603655  0.988878E-06  0.428E-03    2.34       2.3  T
   4   -137.5603668 -0.122311E-05  0.157E-03    2.34       6.4  T
   5   -137.5603668 -0.756553E-07  0.534E-04    2.34      18.8  T
   6   -137.5603668 -0.101654E-07  0.260E-04    2.34      38.7  T
     SCC iter.                  ...        0 min,  0.952 sec
     gradient                   ...        0 min,  0.126 sec
 * total energy  :  -135.4405180 Eh     change       -0.8327882E-04 Eh
   gradient norm :     0.0032957 Eh/α   predicted    -0.4228698E-04 ( -49.22%)
   displ. norm   :     0.1971453 α      lambda       -0.6389007E-04
   maximum displ.:     0.0979475 α      in ANC's #5, #6, #2, ...

........................................................................
.............................. CYCLE   20 ..............................
........................................................................

 iter      E             dE          RMSdq      gap      omega  full diag
   1   -137.5610702 -0.137561E+03  0.189E-02    2.34       0.0  T
   2   -137.5610705 -0.256995E-06  0.109E-02    2.34       1.0  T
   3   -137.5610700  0.473163E-06  0.277E-03    2.34       3.6  T
   4   -137.5610705 -0.553511E-06  0.828E-04    2.34      12.1  T
   5   -137.5610706 -0.155306E-07  0.375E-04    2.34      26.8  T
     SCC iter.                  ...        0 min,  0.887 sec
     gradient                   ...        0 min,  0.135 sec
 * total energy  :  -135.4405733 Eh     change       -0.5531325E-04 Eh
   gradient norm :     0.0031856 Eh/α   predicted    -0.3319167E-04 ( -39.99%)
   displ. norm   :     0.3951553 α      lambda       -0.1258692E-03
   maximum displ.:     0.1926356 α      in ANC's #5, #6, #2, ...
 * RMSD in coord.:     0.5170450 α      energy gain  -0.3820271E-01 Eh

generating ANC from exact Hessian ...
Using Lindh-Hessian (1995)
 Shifting diagonal of input Hessian by    9.9514331059392756E-003
 Lowest  eigenvalues of input Hessian
    0.000000    0.000000    0.000000    0.000000    0.000000    0.000000
    0.010000    0.010052    0.010096    0.010139    0.010311    0.010360
    0.010545    0.010729    0.010835    0.011032    0.011127    0.011282
 Highest eigenvalues
    2.004544    2.026499    2.073531    2.114486    2.121655    2.125802


........................................................................
.............................. CYCLE   21 ..............................
........................................................................

 iter      E             dE          RMSdq      gap      omega  full diag
   1   -137.5605991 -0.137561E+03  0.390E-02    2.34       0.0  T
   2   -137.5606003 -0.115736E-05  0.222E-02    2.34       1.0  T
   3   -137.5605982  0.205076E-05  0.599E-03    2.34       1.7  T
   4   -137.5606007 -0.242007E-05  0.184E-03    2.34       5.4  T
   5   -137.5606007 -0.693029E-07  0.772E-04    2.34      13.0  T
   6   -137.5606008 -0.387792E-07  0.363E-04    2.34      27.7  T
     SCC iter.                  ...        0 min,  1.103 sec
     gradient                   ...        0 min,  0.126 sec
 * total energy  :  -135.4406654 Eh     change       -0.9205214E-04 Eh
   gradient norm :     0.0024406 Eh/α   predicted     0.0000000E+00 (-100.00%)
   displ. norm   :     0.0381736 α      lambda       -0.2567678E-04
   maximum displ.:     0.0160971 α      in ANC's #5, #10, #8, ...

........................................................................
.............................. CYCLE   22 ..............................
........................................................................

 iter      E             dE          RMSdq      gap      omega  full diag
   1   -137.5612122 -0.137561E+03  0.638E-03    2.34       0.0  T
   2   -137.5612123 -0.693102E-07  0.374E-03    2.34       2.7  T
   3   -137.5612122  0.785731E-07  0.127E-03    2.34       7.9  T
   4   -137.5612123 -0.968544E-07  0.338E-04    2.34      29.7  T
   5   -137.5612123 -0.369607E-08  0.165E-04    2.34      60.8  T
     SCC iter.                  ...        0 min,  0.820 sec
     gradient                   ...        0 min,  0.126 sec
 * total energy  :  -135.4406890 Eh     change       -0.2365889E-04 Eh
   gradient norm :     0.0013640 Eh/α   predicted    -0.1379025E-04 ( -41.71%)
   displ. norm   :     0.2199630 α      lambda       -0.7295735E-04
   maximum displ.:     0.0986132 α      in ANC's #5, #10, #8, ...

........................................................................
.............................. CYCLE   23 ..............................
........................................................................

 iter      E             dE          RMSdq      gap      omega  full diag
   1   -137.5621782 -0.137562E+03  0.326E-02    2.34       0.0  T
   2   -137.5621795 -0.124613E-05  0.188E-02    2.34       1.0  T
   3   -137.5621785  0.944321E-06  0.517E-03    2.34       1.9  T
   4   -137.5621797 -0.122472E-05  0.173E-03    2.34       5.8  T
   5   -137.5621798 -0.306901E-07  0.933E-04    2.34      10.8  T
   6   -137.5621798 -0.496790E-07  0.474E-04    2.34      21.2  T
     SCC iter.                  ...        0 min,  1.070 sec
     gradient                   ...        0 min,  0.126 sec
 * total energy  :  -135.4407397 Eh     change       -0.5064877E-04 Eh
   gradient norm :     0.0031556 Eh/α   predicted    -0.3726365E-04 ( -26.43%)
   displ. norm   :     0.0452329 α      lambda       -0.2061998E-04
   maximum displ.:     0.0261491 α      in ANC's #5, #8, #3, ...

........................................................................
.............................. CYCLE   24 ..............................
........................................................................

 iter      E             dE          RMSdq      gap      omega  full diag
   1   -137.5618735 -0.137562E+03  0.621E-03    2.34       0.0  T
   2   -137.5618736 -0.776553E-07  0.332E-03    2.34       3.0  T
   3   -137.5618735  0.207128E-07  0.953E-04    2.34      10.5  T
   4   -137.5618736 -0.183591E-07  0.470E-04    2.34      21.4  T
     SCC iter.                  ...        0 min,  0.813 sec
     gradient                   ...        0 min,  0.144 sec
 * total energy  :  -135.4407578 Eh     change       -0.1818214E-04 Eh
   gradient norm :     0.0024564 Eh/α   predicted    -0.1033152E-04 ( -43.18%)
   displ. norm   :     0.1754568 α      lambda       -0.7317183E-04
   maximum displ.:     0.0980284 α      in ANC's #5, #8, #3, ...

........................................................................
.............................. CYCLE   25 ..............................
........................................................................

 iter      E             dE          RMSdq      gap      omega  full diag
   1   -137.5606604 -0.137561E+03  0.205E-02    2.34       0.0  T
   2   -137.5606609 -0.500673E-06  0.115E-02    2.34       1.0  T
   3   -137.5606605  0.443121E-06  0.319E-03    2.34       3.2  T
   4   -137.5606610 -0.532800E-06  0.129E-03    2.34       7.8  T
   5   -137.5606611 -0.631052E-07  0.510E-04    2.34      19.7  T
   6   -137.5606611 -0.106910E-07  0.242E-04    2.34      41.6  T
     SCC iter.                  ...        0 min,  0.925 sec
     gradient                   ...        0 min,  0.158 sec
 * total energy  :  -135.4408042 Eh     change       -0.4634872E-04 Eh
   gradient norm :     0.0016224 Eh/α   predicted    -0.3771289E-04 ( -18.63%)
   displ. norm   :     0.2616702 α      lambda        0.1971198E-04
   maximum displ.:     0.1461536 α      in ANC's #5, #8, #3, ...

........................................................................
.............................. CYCLE   26 ..............................
........................................................................

 iter      E             dE          RMSdq      gap      omega  full diag
   1   -137.5582129 -0.137558E+03  0.305E-02    2.34       0.0  T
   2   -137.5582140 -0.113642E-05  0.171E-02    2.34       1.0  T
   3   -137.5582130  0.982095E-06  0.475E-03    2.34       2.1  T
   4   -137.5582141 -0.113582E-05  0.202E-03    2.34       5.0  T
   5   -137.5582143 -0.155465E-06  0.905E-04    2.34      11.1  T
   6   -137.5582143 -0.455802E-07  0.435E-04    2.34      23.1  T
     SCC iter.                  ...        0 min,  0.753 sec
     gradient                   ...        0 min,  0.126 sec
 * total energy  :  -135.4407714 Eh     change        0.3278408E-04 Eh
   gradient norm :     0.0064793 Eh/α   predicted     0.1015530E-04 ( -69.02%)
   displ. norm   :     0.0337929 α      lambda       -0.7922099E-04
   maximum displ.:     0.0170633 α      in ANC's #57, #48, #50, ...

........................................................................
.............................. CYCLE   27 ..............................
........................................................................

 iter      E             dE          RMSdq      gap      omega  full diag
   1   -137.5595668 -0.137560E+03  0.141E-02    2.34       0.0  T
   2   -137.5595674 -0.618668E-06  0.661E-03    2.34       1.5  T
   3   -137.5595674  0.723412E-07  0.240E-03    2.34       4.2  T
   4   -137.5595675 -0.103341E-06  0.133E-03    2.34       7.6  T
   5   -137.5595675 -0.730930E-07  0.541E-04    2.34      18.6  T
   6   -137.5595675 -0.798872E-08  0.316E-04    2.34      31.8  T
     SCC iter.                  ...        0 min,  1.038 sec
     gradient                   ...        0 min,  0.126 sec
 * total energy  :  -135.4408277 Eh     change       -0.5624111E-04 Eh
   gradient norm :     0.0036341 Eh/α   predicted    -0.3965722E-04 ( -29.49%)
   displ. norm   :     0.0480047 α      lambda       -0.4976336E-04
   maximum displ.:     0.0247882 α      in ANC's #5, #57, #3, ...

........................................................................
.............................. CYCLE   28 ..............................
........................................................................

 iter      E             dE          RMSdq      gap      omega  full diag
   1   -137.5612493 -0.137561E+03  0.918E-03    2.34       0.0  T
   2   -137.5612496 -0.238648E-06  0.522E-03    2.34       1.9  T
   3   -137.5612493  0.229840E-06  0.228E-03    2.34       4.4  T
   4   -137.5612496 -0.304765E-06  0.727E-04    2.34      13.8  T
   5   -137.5612497 -0.152147E-07  0.376E-04    2.34      26.7  T
     SCC iter.                  ...        0 min,  0.756 sec
     gradient                   ...        0 min,  0.125 sec
 * total energy  :  -135.4408591 Eh     change       -0.3147579E-04 Eh
   gradient norm :     0.0007728 Eh/α   predicted    -0.2493948E-04 ( -20.77%)
   displ. norm   :     0.1392398 α      lambda       -0.2108518E-04
   maximum displ.:     0.0880977 α      in ANC's #5, #3, #8, ...

........................................................................
.............................. CYCLE   29 ..............................
........................................................................

 iter      E             dE          RMSdq      gap      omega  full diag
   1   -137.5620215 -0.137562E+03  0.128E-02    2.34       0.0  T
   2   -137.5620216 -0.136712E-06  0.733E-03    2.34       1.4  T
   3   -137.5620215  0.173875E-06  0.193E-03    2.34       5.2  T
   4   -137.5620217 -0.211485E-06  0.610E-04    2.34      16.5  T
   5   -137.5620217 -0.708985E-08  0.285E-04    2.34      35.2  T
     SCC iter.                  ...        0 min,  0.870 sec
     gradient                   ...        0 min,  0.126 sec
 * total energy  :  -135.4408833 Eh     change       -0.2422238E-04 Eh
   gradient norm :     0.0012900 Eh/α   predicted    -0.1063831E-04 ( -56.08%)
   displ. norm   :     0.1861243 α      lambda       -0.2527475E-04
   maximum displ.:     0.1171234 α      in ANC's #5, #3, #8, ...

........................................................................
.............................. CYCLE   30 ..............................
........................................................................

 iter      E             dE          RMSdq      gap      omega  full diag
   1   -137.5620572 -0.137562E+03  0.169E-02    2.34       0.0  T
   2   -137.5620574 -0.183265E-06  0.956E-03    2.34       1.1  T
   3   -137.5620571  0.266953E-06  0.245E-03    2.34       4.1  T
   4   -137.5620574 -0.327853E-06  0.815E-04    2.34      12.3  T
   5   -137.5620574 -0.161551E-07  0.296E-04    2.34      33.9  T
     SCC iter.                  ...        0 min,  0.878 sec
     gradient                   ...        0 min,  0.127 sec
 * total energy  :  -135.4409155 Eh     change       -0.3218798E-04 Eh
   gradient norm :     0.0014015 Eh/α   predicted    -0.1283398E-04 ( -60.13%)
   displ. norm   :     0.2601839 α      lambda       -0.3164979E-04
   maximum displ.:     0.1637812 α      in ANC's #5, #3, #17, ...

........................................................................
.............................. CYCLE   31 ..............................
........................................................................

 iter      E             dE          RMSdq      gap      omega  full diag
   1   -137.5614505 -0.137561E+03  0.232E-02    2.34       0.0  T
   2   -137.5614509 -0.436012E-06  0.133E-02    2.34       1.0  T
   3   -137.5614504  0.558715E-06  0.305E-03    2.34       3.3  T
   4   -137.5614510 -0.613630E-06  0.125E-03    2.34       8.0  T
   5   -137.5614511 -0.871547E-07  0.389E-04    2.34      25.8  T
   6   -137.5614511 -0.427963E-08  0.203E-04    2.34      49.4  T
     SCC iter.                  ...        0 min,  0.740 sec
     gradient                   ...        0 min,  0.125 sec
 * total energy  :  -135.4409526 Eh     change       -0.3706978E-04 Eh
   gradient norm :     0.0009658 Eh/α   predicted    -0.1630302E-04 ( -56.02%)
   displ. norm   :     0.2623297 α      lambda       -0.2708332E-04
   maximum displ.:     0.1667785 α      in ANC's #5, #3, #17, ...

........................................................................
.............................. CYCLE   32 ..............................
........................................................................

 iter      E             dE          RMSdq      gap      omega  full diag
   1   -137.5611529 -0.137561E+03  0.241E-02    2.34       0.0  T
   2   -137.5611534 -0.455273E-06  0.133E-02    2.34       1.0  T
   3   -137.5611528  0.590887E-06  0.363E-03    2.34       2.8  T
   4   -137.5611535 -0.719987E-06  0.132E-03    2.34       7.6  T
   5   -137.5611536 -0.485235E-07  0.390E-04    2.34      25.8  T
   6   -137.5611536 -0.504068E-08  0.180E-04    2.34      56.0  T
     SCC iter.                  ...        0 min,  0.961 sec
     gradient                   ...        0 min,  0.130 sec
 * total energy  :  -135.4409841 Eh     change       -0.3146008E-04 Eh
   gradient norm :     0.0008794 Eh/α   predicted    -0.1395818E-04 ( -55.63%)
   displ. norm   :     0.2313548 α      lambda       -0.2246462E-04
   maximum displ.:     0.1499524 α      in ANC's #5, #3, #17, ...

........................................................................
.............................. CYCLE   33 ..............................
........................................................................

 iter      E             dE          RMSdq      gap      omega  full diag
   1   -137.5615675 -0.137562E+03  0.200E-02    2.34       0.0  T
   2   -137.5615679 -0.401181E-06  0.113E-02    2.34       1.0  T
   3   -137.5615675  0.426545E-06  0.289E-03    2.34       3.5  T
   4   -137.5615680 -0.435442E-06  0.126E-03    2.34       8.0  T
   5   -137.5615681 -0.100206E-06  0.413E-04    2.34      24.3  T
   6   -137.5615681 -0.674936E-08  0.197E-04    2.34      51.1  T
     SCC iter.                  ...        0 min,  1.035 sec
     gradient                   ...        0 min,  0.125 sec
 * total energy  :  -135.4410120 Eh     change       -0.2792741E-04 Eh
   gradient norm :     0.0007147 Eh/α   predicted    -0.1150288E-04 ( -58.81%)
   displ. norm   :     0.2426033 α      lambda       -0.2335895E-04
   maximum displ.:     0.1573847 α      in ANC's #5, #3, #2, ...

........................................................................
.............................. CYCLE   34 ..............................
........................................................................

 iter      E             dE          RMSdq      gap      omega  full diag
   1   -137.5615646 -0.137562E+03  0.213E-02    2.34       0.0  T
   2   -137.5615650 -0.344460E-06  0.121E-02    2.35       1.0  T
   3   -137.5615646  0.427535E-06  0.264E-03    2.35       3.8  T
   4   -137.5615650 -0.475062E-06  0.106E-03    2.35       9.5  T
   5   -137.5615651 -0.585526E-07  0.392E-04    2.35      25.6  T
   6   -137.5615651 -0.456450E-08  0.219E-04    2.35      45.9  T
     SCC iter.                  ...        0 min,  0.973 sec
     gradient                   ...        0 min,  0.148 sec
 * total energy  :  -135.4410406 Eh     change       -0.2857347E-04 Eh
   gradient norm :     0.0007060 Eh/α   predicted    -0.1198694E-04 ( -58.05%)
   displ. norm   :     0.2461162 α      lambda       -0.2146817E-04
   maximum displ.:     0.1599623 α      in ANC's #5, #3, #2, ...

........................................................................
.............................. CYCLE   35 ..............................
........................................................................

 iter      E             dE          RMSdq      gap      omega  full diag
   1   -137.5617669 -0.137562E+03  0.211E-02    2.35       0.0  T
   2   -137.5617672 -0.278660E-06  0.123E-02    2.35       1.0  T
   3   -137.5617668  0.419783E-06  0.242E-03    2.35       4.1  T
   4   -137.5617672 -0.389823E-06  0.114E-03    2.35       8.8  T
   5   -137.5617673 -0.104931E-06  0.446E-04    2.35      22.6  T
   6   -137.5617673 -0.119565E-07  0.171E-04    2.35      58.8  T
     SCC iter.                  ...        0 min,  0.967 sec
     gradient                   ...        0 min,  0.124 sec
 * total energy  :  -135.4410651 Eh     change       -0.2455661E-04 Eh
   gradient norm :     0.0006750 Eh/α   predicted    -0.1102595E-04 ( -55.10%)
   displ. norm   :     0.1975666 α      lambda       -0.1358743E-04
   maximum displ.:     0.1284914 α      in ANC's #5, #3, #2, ...

........................................................................
.............................. CYCLE   36 ..............................
........................................................................

 iter      E             dE          RMSdq      gap      omega  full diag
   1   -137.5618064 -0.137562E+03  0.182E-02    2.35       0.0  T
   2   -137.5618066 -0.210473E-06  0.104E-02    2.35       1.0  T
   3   -137.5618065  0.129796E-06  0.179E-03    2.35       5.6  T
   4   -137.5618066 -0.112146E-06  0.952E-04    2.35      10.6  T
   5   -137.5618067 -0.642891E-07  0.388E-04    2.35      25.9  T
     SCC iter.                  ...        0 min,  0.617 sec
     gradient                   ...        0 min,  0.141 sec
 * total energy  :  -135.4410805 Eh     change       -0.1533343E-04 Eh
   gradient norm :     0.0005742 Eh/α   predicted    -0.6914876E-05 ( -54.90%)
   displ. norm   :     0.1397654 α      lambda       -0.8266185E-05
   maximum displ.:     0.0911525 α      in ANC's #5, #3, #2, ...

........................................................................
.............................. CYCLE   37 ..............................
........................................................................

 iter      E             dE          RMSdq      gap      omega  full diag
   1   -137.5617318 -0.137562E+03  0.120E-02    2.35       0.0  T
   2   -137.5617319 -0.750824E-07  0.703E-03    2.35       1.4  T
   3   -137.5617318  0.654749E-07  0.115E-03    2.35       8.7  T
   4   -137.5617319 -0.815851E-07  0.330E-04    2.35      30.5  T
   5   -137.5617319 -0.456737E-08  0.144E-04    2.35      70.0  T
     SCC iter.                  ...        0 min,  0.771 sec
     gradient                   ...        0 min,  0.135 sec
 * total energy  :  -135.4410903 Eh     change       -0.9881045E-05 Eh
   gradient norm :     0.0003510 Eh/α   predicted    -0.4172128E-05 ( -57.78%)
   displ. norm   :     0.1228616 α      lambda       -0.7475440E-05
   maximum displ.:     0.0773233 α      in ANC's #5, #3, #2, ...

........................................................................
.............................. CYCLE   38 ..............................
........................................................................

 iter      E             dE          RMSdq      gap      omega  full diag
   1   -137.5619635 -0.137562E+03  0.106E-02    2.35       0.0  T
   2   -137.5619636 -0.603022E-07  0.624E-03    2.35       1.6  T
   3   -137.5619635  0.443810E-07  0.962E-04    2.35      10.5  T
   4   -137.5619636 -0.560717E-07  0.289E-04    2.35      34.8  T
     SCC iter.                  ...        0 min,  0.620 sec
     gradient                   ...        0 min,  0.122 sec
 * total energy  :  -135.4410992 Eh     change       -0.8879024E-05 Eh
   gradient norm :     0.0004164 Eh/α   predicted    -0.3764370E-05 ( -57.60%)
   displ. norm   :     0.1345399 α      lambda       -0.7314036E-05
   maximum displ.:     0.0829996 α      in ANC's #5, #3, #7, ...

........................................................................
.............................. CYCLE   39 ..............................
........................................................................

 iter      E             dE          RMSdq      gap      omega  full diag
   1   -137.5616560 -0.137562E+03  0.111E-02    2.35       0.0  T
   2   -137.5616560 -0.585427E-07  0.652E-03    2.35       1.5  T
   3   -137.5616559  0.742308E-07  0.105E-03    2.35       9.6  T
   4   -137.5616560 -0.857395E-07  0.332E-04    2.35      30.2  T
   5   -137.5616560 -0.704037E-08  0.160E-04    2.35      62.8  T
     SCC iter.                  ...        0 min,  0.645 sec
     gradient                   ...        0 min,  0.140 sec
 * total energy  :  -135.4411072 Eh     change       -0.7990213E-05 Eh
   gradient norm :     0.0004102 Eh/α   predicted    -0.3686859E-05 ( -53.86%)
   displ. norm   :     0.1147756 α      lambda       -0.5035045E-05
   maximum displ.:     0.0683581 α      in ANC's #5, #3, #7, ...

........................................................................
.............................. CYCLE   40 ..............................
........................................................................

 iter      E             dE          RMSdq      gap      omega  full diag
   1   -137.5619293 -0.137562E+03  0.951E-03    2.35       0.0  T
   2   -137.5619294 -0.471430E-07  0.554E-03    2.35       1.8  T
   3   -137.5619293  0.686276E-07  0.100E-03    2.35      10.1  T
   4   -137.5619294 -0.772793E-07  0.367E-04    2.35      27.4  T
     SCC iter.                  ...        0 min,  0.387 sec
     gradient                   ...        0 min,  0.122 sec
 * total energy  :  -135.4411124 Eh     change       -0.5154998E-05 Eh
   gradient norm :     0.0004706 Eh/α   predicted    -0.2535935E-05 ( -50.81%)
   displ. norm   :     0.0803747 α      lambda       -0.3061113E-05
   maximum displ.:     0.0464940 α      in ANC's #5, #3, #14, ...

........................................................................
.............................. CYCLE   41 ..............................
........................................................................

 iter      E             dE          RMSdq      gap      omega  full diag
   1   -137.5618128 -0.137562E+03  0.688E-03    2.35       0.0  T
   2   -137.5618128 -0.308294E-07  0.401E-03    2.35       2.5  T
   3   -137.5618127  0.143295E-06  0.124E-03    2.35       8.1  T
   4   -137.5618128 -0.153850E-06  0.365E-04    2.35      27.5  T
   5   -137.5618129 -0.802606E-08  0.147E-04    2.35      68.5  T
     SCC iter.                  ...        0 min,  0.690 sec
     gradient                   ...        0 min,  0.155 sec
 * total energy  :  -135.4411157 Eh     change       -0.3357002E-05 Eh
   gradient norm :     0.0002701 Eh/α   predicted    -0.1536814E-05 ( -54.22%)
   displ. norm   :     0.0696075 α      lambda       -0.2711107E-05
   maximum displ.:     0.0363960 α      in ANC's #5, #3, #14, ...

........................................................................
.............................. CYCLE   42 ..............................
........................................................................

 iter      E             dE          RMSdq      gap      omega  full diag
   1   -137.5619053 -0.137562E+03  0.664E-03    2.35       0.0  T
   2   -137.5619053 -0.278848E-07  0.381E-03    2.35       2.6  T
   3   -137.5619052  0.727437E-07  0.104E-03    2.35       9.7  T
   4   -137.5619053 -0.814008E-07  0.347E-04    2.35      28.9  T
   5   -137.5619053 -0.384429E-08  0.164E-04    2.35      61.4  T
     SCC iter.                  ...        0 min,  0.724 sec
     gradient                   ...        0 min,  0.195 sec
 * total energy  :  -135.4411186 Eh     change       -0.2890286E-05 Eh
   gradient norm :     0.0002425 Eh/α   predicted    -0.1360826E-05 ( -52.92%)
   displ. norm   :     0.0515337 α      lambda       -0.1861386E-05
   maximum displ.:     0.0244127 α      in ANC's #3, #5, #14, ...
 * RMSD in coord.:     0.2843778 α      energy gain  -0.5453072E-03 Eh

generating ANC from exact Hessian ...
Using Lindh-Hessian (1995)
 Shifting diagonal of input Hessian by    9.9539198467145842E-003
 Lowest  eigenvalues of input Hessian
    0.000000    0.000000    0.000000    0.000000    0.000000    0.000000
    0.010000    0.010051    0.010086    0.010129    0.010320    0.010357
    0.010545    0.010734    0.010841    0.011065    0.011127    0.011287
 Highest eigenvalues
    2.003563    2.026828    2.074787    2.115438    2.121231    2.126445


........................................................................
.............................. CYCLE   43 ..............................
........................................................................

 iter      E             dE          RMSdq      gap      omega  full diag
   1   -137.5619049 -0.137562E+03  0.548E-03    2.35       0.0  T
   2   -137.5619049 -0.201231E-07  0.312E-03    2.35       3.2  T
   3   -137.5619049  0.231678E-07  0.714E-04    2.35      14.1  T
   4   -137.5619049 -0.255937E-07  0.296E-04    2.35      34.0  T
     SCC iter.                  ...        0 min,  0.566 sec
     gradient                   ...        0 min,  0.123 sec
 * total energy  :  -135.4411205 Eh     change       -0.1929222E-05 Eh
   gradient norm :     0.0002466 Eh/α   predicted     0.0000000E+00 (-100.00%)
   displ. norm   :     0.0090568 α      lambda       -0.4922662E-07
   maximum displ.:     0.0032436 α      in ANC's #15, #11, #7, ...

........................................................................
.............................. CYCLE   44 ..............................
........................................................................

 iter      E             dE          RMSdq      gap      omega  full diag
   1   -137.5619180 -0.137562E+03  0.135E-03    2.35       0.0  T
   2   -137.5619180 -0.175422E-08  0.779E-04    2.35      12.9  T
   3   -137.5619180  0.543687E-08  0.263E-04    2.35      38.2  T
     SCC iter.                  ...        0 min,  0.404 sec
     gradient                   ...        0 min,  0.150 sec
 * total energy  :  -135.4411212 Eh     change       -0.7080862E-06 Eh
   gradient norm :     0.0001713 Eh/α   predicted    -0.2824914E-06 ( -60.10%)
   displ. norm   :     0.0510677 α      lambda       -0.2407818E-05
   maximum displ.:     0.0187953 α      in ANC's #11, #15, #7, ...

........................................................................
.............................. CYCLE   45 ..............................
........................................................................

 iter      E             dE          RMSdq      gap      omega  full diag
   1   -137.5618886 -0.137562E+03  0.660E-03    2.35       0.0  T
   2   -137.5618886 -0.371697E-07  0.384E-03    2.35       2.6  T
   3   -137.5618885  0.102250E-06  0.114E-03    2.35       8.8  T
   4   -137.5618886 -0.107194E-06  0.393E-04    2.35      25.6  T
   5   -137.5618886 -0.109136E-07  0.168E-04    2.35      59.7  T
     SCC iter.                  ...        0 min,  0.615 sec
     gradient                   ...        0 min,  0.119 sec
 * total energy  :  -135.4411230 Eh     change       -0.1719349E-05 Eh
   gradient norm :     0.0003319 Eh/α   predicted    -0.1208615E-05 ( -29.71%)
   displ. norm   :     0.0214488 α      lambda       -0.9591588E-06
   maximum displ.:     0.0075868 α      in ANC's #15, #11, #7, ...

........................................................................
.............................. CYCLE   46 ..............................
........................................................................

 iter      E             dE          RMSdq      gap      omega  full diag
   1   -137.5618609 -0.137562E+03  0.463E-03    2.35       0.0  T
   2   -137.5618610 -0.578301E-07  0.213E-03    2.35       4.7  T
   3   -137.5618610  0.861007E-09  0.675E-04    2.35      14.9  T
   4   -137.5618610 -0.389153E-08  0.383E-04    2.35      26.2  T
     SCC iter.                  ...        0 min,  0.591 sec
     gradient                   ...        0 min,  0.137 sec
 * total energy  :  -135.4411233 Eh     change       -0.3129985E-06 Eh
   gradient norm :     0.0003073 Eh/α   predicted    -0.4801024E-06 (  53.39%)
   displ. norm   :     0.0071209 α      lambda       -0.6250933E-06
   maximum displ.:     0.0021795 α      in ANC's #22, #17, #48, ...

........................................................................
.............................. CYCLE   47 ..............................
........................................................................

 iter      E             dE          RMSdq      gap      omega  full diag
   1   -137.5618789 -0.137562E+03  0.213E-03    2.36       0.0  T
   2   -137.5618789 -0.132748E-07  0.954E-04    2.36      10.5  T
   3   -137.5618789  0.157158E-08  0.353E-04    2.35      28.5  T
     SCC iter.                  ...        0 min,  0.332 sec
     gradient                   ...        0 min,  0.120 sec
 * total energy  :  -135.4411240 Eh     change       -0.6724802E-06 Eh
   gradient norm :     0.0001570 Eh/α   predicted    -0.3166384E-06 ( -52.91%)
   displ. norm   :     0.0203027 α      lambda       -0.6841223E-06
   maximum displ.:     0.0070367 α      in ANC's #3, #4, #2, ...

........................................................................
.............................. CYCLE   48 ..............................
........................................................................

 iter      E             dE          RMSdq      gap      omega  full diag
   1   -137.5618848 -0.137562E+03  0.280E-03    2.36       0.0  T
   2   -137.5618848 -0.108580E-07  0.150E-03    2.36       6.7  T
   3   -137.5618848  0.198654E-08  0.421E-04    2.36      23.9  T
   4   -137.5618848 -0.177423E-08  0.218E-04    2.36      46.0  T
     SCC iter.                  ...        0 min,  0.654 sec
     gradient                   ...        0 min,  0.124 sec
 * total energy  :  -135.4411247 Eh     change       -0.7033258E-06 Eh
   gradient norm :     0.0001457 Eh/α   predicted    -0.3523492E-06 ( -49.90%)
   displ. norm   :     0.0360391 α      lambda       -0.6890371E-06
   maximum displ.:     0.0128132 α      in ANC's #3, #4, #2, ...

........................................................................
.............................. CYCLE   49 ..............................
........................................................................

 iter      E             dE          RMSdq      gap      omega  full diag
   1   -137.5618711 -0.137562E+03  0.359E-03    2.36       0.0  T
   2   -137.5618712 -0.152931E-07  0.205E-03    2.36       4.9  T
   3   -137.5618711  0.156663E-07  0.587E-04    2.36      17.1  T
   4   -137.5618712 -0.180661E-07  0.223E-04    2.36      45.1  T
     SCC iter.                  ...        0 min,  0.580 sec
     gradient                   ...        0 min,  0.126 sec
 * total energy  :  -135.4411253 Eh     change       -0.6822083E-06 Eh
   gradient norm :     0.0002232 Eh/α   predicted    -0.3465455E-06 ( -49.20%)
   displ. norm   :     0.0402027 α      lambda       -0.6354466E-06
   maximum displ.:     0.0149944 α      in ANC's #3, #4, #2, ...

........................................................................
.............................. CYCLE   50 ..............................
........................................................................

 iter      E             dE          RMSdq      gap      omega  full diag
   1   -137.5618494 -0.137562E+03  0.471E-03    2.36       0.0  T
   2   -137.5618494 -0.202493E-07  0.240E-03    2.36       4.2  T
   3   -137.5618494  0.681646E-08  0.646E-04    2.36      15.6  T
   4   -137.5618494  0.267389E-08  0.420E-04    2.36      23.9  T
     SCC iter.                  ...        0 min,  0.644 sec
     gradient                   ...        0 min,  0.168 sec
 * total energy  :  -135.4411260 Eh     change       -0.7009263E-06 Eh
   gradient norm :     0.0001933 Eh/α   predicted    -0.3218342E-06 ( -54.08%)
   displ. norm   :     0.0405938 α      lambda       -0.6122791E-06
   maximum displ.:     0.0157448 α      in ANC's #3, #2, #4, ...

........................................................................
.............................. CYCLE   51 ..............................
........................................................................

 iter      E             dE          RMSdq      gap      omega  full diag
   1   -137.5618611 -0.137562E+03  0.440E-03    2.36       0.0  T
   2   -137.5618611 -0.172801E-07  0.229E-03    2.36       4.4  T
   3   -137.5618611  0.661169E-08  0.599E-04    2.36      16.8  T
   4   -137.5618611  0.321990E-09  0.377E-04    2.36      26.7  T
     SCC iter.                  ...        0 min,  0.635 sec
     gradient                   ...        0 min,  0.151 sec
 * total energy  :  -135.4411268 Eh     change       -0.7284038E-06 Eh
   gradient norm :     0.0001228 Eh/α   predicted    -0.3097570E-06 ( -57.47%)
   displ. norm   :     0.0475062 α      lambda       -0.6469959E-06
   maximum displ.:     0.0191824 α      in ANC's #2, #3, #4, ...

........................................................................
.............................. CYCLE   52 ..............................
........................................................................

 iter      E             dE          RMSdq      gap      omega  full diag
   1   -137.5618727 -0.137562E+03  0.490E-03    2.36       0.0  T
   2   -137.5618727 -0.181780E-07  0.260E-03    2.36       3.9  T
   3   -137.5618727  0.143424E-07  0.678E-04    2.36      14.8  T
   4   -137.5618727 -0.370912E-08  0.435E-04    2.36      23.1  T
     SCC iter.                  ...        0 min,  0.574 sec
     gradient                   ...        0 min,  0.123 sec
 * total energy  :  -135.4411275 Eh     change       -0.7511871E-06 Eh
   gradient norm :     0.0001438 Eh/α   predicted    -0.3246000E-06 ( -56.79%)
   displ. norm   :     0.0539765 α      lambda       -0.6245796E-06
   maximum displ.:     0.0229986 α      in ANC's #2, #3, #4, ...

........................................................................
.............................. CYCLE   53 ..............................
........................................................................

 iter      E             dE          RMSdq      gap      omega  full diag
   1   -137.5619012 -0.137562E+03  0.520E-03    2.36       0.0  T
   2   -137.5619013 -0.186445E-07  0.281E-03    2.36       3.6  T
   3   -137.5619012  0.107199E-07  0.660E-04    2.36      15.2  T
   4   -137.5619012 -0.215039E-09  0.424E-04    2.36      23.7  T
     SCC iter.                  ...        0 min,  0.617 sec
     gradient                   ...        0 min,  0.123 sec
 * total energy  :  -135.4411282 Eh     change       -0.7234191E-06 Eh
   gradient norm :     0.0001729 Eh/α   predicted    -0.3168360E-06 ( -56.20%)
   displ. norm   :     0.0468288 α      lambda       -0.4805260E-06
   maximum displ.:     0.0209525 α      in ANC's #2, #3, #4, ...

........................................................................
.............................. CYCLE   54 ..............................
........................................................................

 iter      E             dE          RMSdq      gap      omega  full diag
   1   -137.5619255 -0.137562E+03  0.434E-03    2.36       0.0  T
   2   -137.5619255 -0.117402E-07  0.237E-03    2.36       4.2  T
   3   -137.5619255  0.194737E-07  0.615E-04    2.36      16.3  T
   4   -137.5619255 -0.110134E-07  0.396E-04    2.36      25.4  T
     SCC iter.                  ...        0 min,  0.797 sec
     gradient                   ...        0 min,  0.156 sec
 * total energy  :  -135.4411288 Eh     change       -0.5389243E-06 Eh
   gradient norm :     0.0001446 Eh/α   predicted    -0.2453361E-06 ( -54.48%)
   displ. norm   :     0.0335115 α      lambda       -0.3485685E-06
   maximum displ.:     0.0159818 α      in ANC's #2, #3, #1, ...

........................................................................
.............................. CYCLE   55 ..............................
........................................................................

 iter      E             dE          RMSdq      gap      omega  full diag
   1   -137.5619439 -0.137562E+03  0.304E-03    2.36       0.0  T
   2   -137.5619439 -0.710594E-08  0.169E-03    2.36       5.9  T
   3   -137.5619439  0.503354E-08  0.403E-04    2.36      24.9  T
   4   -137.5619439 -0.357880E-08  0.222E-04    2.36      45.3  T
     SCC iter.                  ...        0 min,  0.547 sec
     gradient                   ...        0 min,  0.123 sec
 * total energy  :  -135.4411292 Eh     change       -0.3989891E-06 Eh
   gradient norm :     0.0000914 Eh/α   predicted    -0.1777012E-06 ( -55.46%)
   displ. norm   :     0.0269987 α      lambda       -0.3084821E-06
   maximum displ.:     0.0136756 α      in ANC's #2, #3, #1, ...

........................................................................
.............................. CYCLE   56 ..............................
........................................................................

 iter      E             dE          RMSdq      gap      omega  full diag
   1   -137.5619467 -0.137562E+03  0.254E-03    2.36       0.0  T
   2   -137.5619467 -0.456947E-08  0.142E-03    2.36       7.1  T
   3   -137.5619467  0.147637E-07  0.446E-04    2.36      22.5  T
   4   -137.5619467 -0.146368E-07  0.208E-04    2.36      48.4  T
     SCC iter.                  ...        0 min,  0.638 sec
     gradient                   ...        0 min,  0.126 sec
 * total energy  :  -135.4411295 Eh     change       -0.3690905E-06 Eh
   gradient norm :     0.0001018 Eh/α   predicted    -0.1580103E-06 ( -57.19%)
   displ. norm   :     0.0305882 α      lambda       -0.3579067E-06
   maximum displ.:     0.0160537 α      in ANC's #2, #1, #3, ...

........................................................................
.............................. CYCLE   57 ..............................
........................................................................

 iter      E             dE          RMSdq      gap      omega  full diag
   1   -137.5619492 -0.137562E+03  0.295E-03    2.36       0.0  T
   2   -137.5619492 -0.790234E-08  0.162E-03    2.36       6.2  T
   3   -137.5619492  0.481171E-08  0.422E-04    2.36      23.8  T
   4   -137.5619492 -0.438936E-08  0.219E-04    2.36      46.0  T
     SCC iter.                  ...        0 min,  0.559 sec
     gradient                   ...        0 min,  0.126 sec
 * total energy  :  -135.4411300 Eh     change       -0.4445037E-06 Eh
   gradient norm :     0.0001475 Eh/α   predicted    -0.1822382E-06 ( -59.00%)
   displ. norm   :     0.0341264 α      lambda       -0.3942150E-06
   maximum displ.:     0.0182286 α      in ANC's #2, #1, #3, ...

........................................................................
.............................. CYCLE   58 ..............................
........................................................................

 iter      E             dE          RMSdq      gap      omega  full diag
   1   -137.5619212 -0.137562E+03  0.351E-03    2.36       0.0  T
   2   -137.5619212 -0.952306E-08  0.185E-03    2.36       5.4  T
   3   -137.5619212  0.118755E-07  0.523E-04    2.36      19.2  T
   4   -137.5619212 -0.824878E-08  0.311E-04    2.36      32.3  T
     SCC iter.                  ...        0 min,  0.634 sec
     gradient                   ...        0 min,  0.123 sec
 * total energy  :  -135.4411305 Eh     change       -0.4811087E-06 Eh
   gradient norm :     0.0001543 Eh/α   predicted    -0.1990421E-06 ( -58.63%)
   displ. norm   :     0.0359832 α      lambda       -0.4082212E-06
   maximum displ.:     0.0196669 α      in ANC's #2, #1, #6, ...

........................................................................
.............................. CYCLE   59 ..............................
........................................................................

 iter      E             dE          RMSdq      gap      omega  full diag
   1   -137.5619283 -0.137562E+03  0.376E-03    2.36       0.0  T
   2   -137.5619283 -0.123508E-07  0.200E-03    2.36       5.0  T
   3   -137.5619283  0.296745E-08  0.484E-04    2.36      20.8  T
   4   -137.5619283 -0.533390E-09  0.285E-04    2.36      35.3  T
     SCC iter.                  ...        0 min,  0.527 sec
     gradient                   ...        0 min,  0.123 sec
 * total energy  :  -135.4411310 Eh     change       -0.4896824E-06 Eh
   gradient norm :     0.0001072 Eh/α   predicted    -0.2055917E-06 ( -58.02%)
   displ. norm   :     0.0331338 α      lambda       -0.3561829E-06
   maximum displ.:     0.0185922 α      in ANC's #2, #1, #6, ...

........................................................................
.............................. CYCLE   60 ..............................
........................................................................

 iter      E             dE          RMSdq      gap      omega  full diag
   1   -137.5619175 -0.137562E+03  0.358E-03    2.36       0.0  T
   2   -137.5619175 -0.910404E-08  0.191E-03    2.36       5.3  T
   3   -137.5619175  0.106432E-07  0.508E-04    2.36      19.8  T
   4   -137.5619175 -0.462495E-08  0.318E-04    2.36      31.6  T
     SCC iter.                  ...        0 min,  0.598 sec
     gradient                   ...        0 min,  0.146 sec
 * total energy  :  -135.4411314 Eh     change       -0.4143111E-06 Eh
   gradient norm :     0.0000746 Eh/α   predicted    -0.1788112E-06 ( -56.84%)
   displ. norm   :     0.0301880 α      lambda       -0.3008284E-06
   maximum displ.:     0.0173732 α      in ANC's #2, #1, #5, ...

........................................................................
.............................. CYCLE   61 ..............................
........................................................................

 iter      E             dE          RMSdq      gap      omega  full diag
   1   -137.5619310 -0.137562E+03  0.322E-03    2.36       0.0  T
   2   -137.5619310 -0.602878E-08  0.178E-03    2.36       5.6  T
   3   -137.5619310  0.171141E-08  0.351E-04    2.36      28.6  T
   4   -137.5619310  0.609759E-09  0.215E-04    2.36      46.9  T
     SCC iter.                  ...        0 min,  0.571 sec
     gradient                   ...        0 min,  0.126 sec
 * total energy  :  -135.4411317 Eh     change       -0.3674362E-06 Eh
   gradient norm :     0.0000926 Eh/α   predicted    -0.1510668E-06 ( -58.89%)
   displ. norm   :     0.0308930 α      lambda       -0.2957332E-06
   maximum displ.:     0.0179640 α      in ANC's #2, #1, #5, ...

........................................................................
.............................. CYCLE   62 ..............................
........................................................................

 iter      E             dE          RMSdq      gap      omega  full diag
   1   -137.5619413 -0.137562E+03  0.318E-03    2.36       0.0  T
   2   -137.5619413 -0.454392E-08  0.178E-03    2.36       5.6  T
   3   -137.5619413  0.893647E-08  0.401E-04    2.36      25.1  T
   4   -137.5619413 -0.721664E-08  0.215E-04    2.36      46.7  T
[...]
    58   1 H        0.925     0.036     2.503     2.474
    59   1 H        0.925     0.046     2.375     2.410
    60   1 H        0.924     0.059     2.209     2.324
    61   1 H        0.925     0.058     2.217     2.329
    62   1 H        0.925     0.063     2.167     2.302
    63   1 H        0.925     0.052     2.293     2.368
    64   1 H        0.925     0.060     2.203     2.321
    65   1 H        0.925     0.047     2.363     2.404
    66   1 H        0.925     0.064     2.152     2.294
    67   1 H        0.924     0.048     2.348     2.396
    68   1 H        0.925     0.056     2.250     2.346
    69   1 H        0.925     0.043     2.408     2.427
    70   1 H        0.925     0.064     2.157     2.297
    71   1 H        0.925     0.048     2.349     2.397
    72   1 H        0.925     0.059     2.213     2.326
    73   1 H        0.925     0.063     2.169     2.303
    74   1 H        0.924     0.053     2.280     2.362
    75   1 H        0.925     0.074     2.042     2.234
    76   1 H        0.925     0.069     2.093     2.262
    77   1 H        0.926     0.044     2.398     2.422
    78   1 H        0.926     0.053     2.282     2.362
    79   1 H        0.926     0.047     2.354     2.399
    80   1 H        0.926     0.049     2.338     2.391
    81   1 H        0.926     0.045     2.383     2.414
    82   1 H        0.926     0.037     2.487     2.466
    83   1 H        0.926     0.042     2.421     2.433
    84   1 H        0.926     0.051     2.313     2.378
    85   1 H        0.926     0.046     2.366     2.406
    86   1 H        0.926     0.049     2.326     2.385
    87   1 H        0.926     0.047     2.359     2.402
    88   1 H        0.926     0.038     2.475     2.460
    89   1 H        0.925     0.062     2.174     2.306
    90   1 H        0.924     0.044     2.403     2.424
    91   1 H        0.925     0.073     2.048     2.238
    92   1 H        0.924     0.043     2.416     2.430
    93   1 H        0.925     0.043     2.403     2.424
    94   1 H        0.925     0.048     2.343     2.394
    95   1 H        0.925     0.041     2.440     2.443
    96   1 H        0.925     0.029     2.603     2.523
    97   1 H        0.925     0.044     2.390     2.418
    98   1 H        0.925     0.048     2.345     2.395
    99   1 H        0.926     0.055     2.263     2.352

 Mol. C6AA /au·bohr⁶  :     115580.767858
 Mol. C8AA /au·bohr⁸  :    2996385.510522
 Mol. α(0) /au        :        537.115092


Wiberg/Mayer (AO) data.
largest (>0.10) Wiberg bond orders for each atom

 ---------------------------------------------------------------------------
     #   Z sym  total        # sym  WBO       # sym  WBO       # sym  WBO
 ---------------------------------------------------------------------------
     1   6 C    3.936 --    49 H    0.978    50 H    0.976    51 H    0.976
                             2 O    0.976
     2   8 O    2.262 --     3 C    1.099     1 C    0.976
     3   6 C    3.930 --    48 C    1.362     4 C    1.324     2 O    1.099
     4   6 C    3.983 --     5 C    1.461     3 C    1.324    52 H    0.959
     5   6 C    3.984 --     4 C    1.461     9 C    1.330     6 C    1.002
     6   6 C    3.994 --     7 C    1.007     5 C    1.002     8 C    0.986
                            53 H    0.952
     7   6 C    3.994 --     6 C    1.007    54 H    0.984    56 H    0.983
                            55 H    0.981
     8   6 C    3.990 --     6 C    0.986    57 H    0.986    58 H    0.980
                            59 H    0.980
     9   6 C    3.935 --    44 C    1.375     5 C    1.330    10 S    0.997
    10  16 S    2.341 --    11 S    1.092     9 C    0.997
    11  16 S    2.481 --    10 S    1.092    12 P    1.053
    12  15 P    5.154 --    13 N    1.253    20 N    1.211    42 N    1.191
                            11 S    1.053
    13   7 N    3.403 --    12 P    1.253    14 C    0.942    17 C    0.937
    14   6 C    3.957 --    15 C    1.005    16 C    1.003    13 N    0.942
                            60 H    0.929
    15   6 C    3.989 --    14 C    1.005    63 H    0.983    62 H    0.979
                            61 H    0.977
    16   6 C    3.989 --    14 C    1.003    64 H    0.980    66 H    0.980
                            65 H    0.979
    17   6 C    3.960 --    19 C    1.004    18 C    1.001    67 H    0.937
                            13 N    0.937
    18   6 C    3.991 --    17 C    1.001    68 H    0.982    70 H    0.980
                            69 H    0.977
    19   6 C    3.988 --    17 C    1.004    73 H    0.979    72 H    0.977
                            71 H    0.976
    20   7 N    3.413 --    12 P    1.211    21 C    0.971    22 C    0.969
    21   6 C    3.960 --    75 H    0.977    74 H    0.973    20 N    0.971
                            76 H    0.961
    22   6 C    3.948 --    31 C    1.458    23 C    1.286    20 N    0.969
    23   6 C    3.988 --    24 C    1.557    22 C    1.286    77 H    0.963
    24   6 C    3.984 --    23 C    1.557    25 C    1.273    78 H    0.966
                            31 C    0.105
    25   6 C    3.988 --    26 C    1.279    24 C    1.273    30 C    1.255
    26   6 C    3.988 --    27 C    1.553    25 C    1.279    79 H    0.967
                            29 C    0.117
    27   6 C    3.986 --    26 C    1.553    28 C    1.324    80 H    0.970
    28   6 C    3.990 --    29 C    1.549    27 C    1.324    81 H    0.970
    29   6 C    3.989 --    28 C    1.549    30 C    1.284    82 H    0.964
                            26 C    0.117
    30   6 C    3.987 --    29 C    1.284    25 C    1.255    31 C    1.229
    31   6 C    3.986 --    22 C    1.458    30 C    1.229    32 C    1.034
                            24 C    0.105
    32   6 C    3.985 --    33 C    1.448    41 C    1.234    31 C    1.034
                            35 C    0.106
    33   6 C    3.948 --    32 C    1.448    34 C    1.286    42 N    0.974
    34   6 C    3.985 --    35 C    1.554    33 C    1.286    83 H    0.963
    35   6 C    3.984 --    34 C    1.554    36 C    1.274    84 H    0.966
                            32 C    0.106
    36   6 C    3.988 --    37 C    1.280    35 C    1.274    41 C    1.254
    37   6 C    3.989 --    38 C    1.555    36 C    1.280    85 H    0.967
                            40 C    0.117
    38   6 C    3.986 --    37 C    1.555    39 C    1.322    86 H    0.969
    39   6 C    3.990 --    40 C    1.553    38 C    1.322    87 H    0.970
    40   6 C    3.989 --    39 C    1.553    41 C    1.283    88 H    0.966
                            37 C    0.117
    41   6 C    3.987 --    40 C    1.283    36 C    1.254    32 C    1.234
    42   7 N    3.404 --    12 P    1.191    33 C    0.974    43 C    0.972
    43   6 C    3.963 --    91 H    0.974    90 H    0.973    42 N    0.972
                            89 H    0.965
    44   6 C    3.984 --    48 C    1.416     9 C    1.375    45 C    1.002
    45   6 C    3.992 --    44 C    1.002    47 C    0.995    46 C    0.993
                            92 H    0.955
    46   6 C    3.993 --    45 C    0.993    95 H    0.987    94 H    0.984
                            93 H    0.983
    47   6 C    3.994 --    45 C    0.995    96 H    0.986    98 H    0.984
                            97 H    0.984
    48   6 C    3.983 --    44 C    1.416     3 C    1.362    99 H    0.957
    49   1 H    0.994 --     1 C    0.978
    50   1 H    0.997 --     1 C    0.976
    51   1 H    0.997 --     1 C    0.976
    52   1 H    0.994 --     4 C    0.959
    53   1 H    0.998 --     6 C    0.952
    54   1 H    0.999 --     7 C    0.984
    55   1 H    0.998 --     7 C    0.981
    56   1 H    0.997 --     7 C    0.983
    57   1 H    0.998 --     8 C    0.986
    58   1 H    0.999 --     8 C    0.980
    59   1 H    0.997 --     8 C    0.980
    60   1 H    0.996 --    14 C    0.929
    61   1 H    0.995 --    15 C    0.977
    62   1 H    0.995 --    15 C    0.979
    63   1 H    0.997 --    15 C    0.983
    64   1 H    0.996 --    16 C    0.980
    65   1 H    0.998 --    16 C    0.979
    66   1 H    0.995 --    16 C    0.980
    67   1 H    0.997 --    17 C    0.937
    68   1 H    0.996 --    18 C    0.982
    69   1 H    0.998 --    18 C    0.977
    70   1 H    0.996 --    18 C    0.980
    71   1 H    0.998 --    19 C    0.976
    72   1 H    0.996 --    19 C    0.977
    73   1 H    0.995 --    19 C    0.979
    74   1 H    0.997 --    21 C    0.973
    75   1 H    0.994 --    21 C    0.977
    76   1 H    0.994 --    21 C    0.961
    77   1 H    0.997 --    23 C    0.963
    78   1 H    0.996 --    24 C    0.966
    79   1 H    0.997 --    26 C    0.967
    80   1 H    0.997 --    27 C    0.970
    81   1 H    0.997 --    28 C    0.970
    82   1 H    0.998 --    29 C    0.964
    83   1 H    0.997 --    34 C    0.963
    84   1 H    0.996 --    35 C    0.966
    85   1 H    0.997 --    37 C    0.967
    86   1 H    0.997 --    38 C    0.969
    87   1 H    0.997 --    39 C    0.970
    88   1 H    0.998 --    40 C    0.966
    89   1 H    0.995 --    43 C    0.965
    90   1 H    0.998 --    43 C    0.973
    91   1 H    0.994 --    43 C    0.974
    92   1 H    0.998 --    45 C    0.955
    93   1 H    0.998 --    46 C    0.983
    94   1 H    0.997 --    46 C    0.984
    95   1 H    0.998 --    46 C    0.987
    96   1 H    0.999 --    47 C    0.986
    97   1 H    0.998 --    47 C    0.984
    98   1 H    0.997 --    47 C    0.984
    99   1 H    0.996 --    48 C    0.957
 ---------------------------------------------------------------------------

Topologies differ in total number of bonds
Writing topology from bond orders to xtbtopo.mol

molecular dipole:
                 x           y           z       tot (Debye)
 q only:       -0.328      -1.839       0.769
   full:       -0.092      -1.758       0.797       4.912
molecular quadrupole (traceless):
                xx          xy          yy          xz          yz          zz
 q only:       19.199       0.970       4.807     -10.333     -10.635     -24.006
  q+dip:       20.236      -1.297      -1.128     -10.727      -9.987     -19.109
   full:       21.418       1.976       0.563     -10.895     -11.873     -21.981

           -------------------------------------------------
          |                Geometry Summary                 |
           -------------------------------------------------

      molecular mass/u    :      696.9680015
   center of mass at/Å    :       -0.1808927       0.1742060      -0.1157233
  moments of inertia/u·Å² :        0.6291645E+04   0.9112244E+04   0.1167675E+05
rotational constants/cm⁻¹ :        0.2679368E-02   0.1849998E-02   0.1443693E-02

 * 100 selected distances

     #   Z          #   Z                                           value/Å
     1   6 C        2   8 O                                       1.4107935
     2   8 O        3   6 C                                       1.3482543
     3   6 C        4   6 C                                       1.3972958
     4   6 C        5   6 C                                       1.3785313
     6   6 C        7   6 C                                       1.5259889
     6   6 C        8   6 C                                       1.5329834
     5   6 C        9   6 C                                       1.4042633
    10  16 S       11  16 S                                       2.0757935
    11  16 S       12  15 P                                       2.0998537 (max)
    12  15 P       13   7 N                                       1.6542358
    13   7 N       14   6 C                                       1.4727861
    14   6 C       15   6 C                                       1.5231156
    14   6 C       16   6 C                                       1.5267741
    13   7 N       17   6 C                                       1.4767446
    17   6 C       18   6 C                                       1.5304860
    17   6 C       19   6 C                                       1.5251871
    12  15 P       20   7 N                                       1.6601382
    20   7 N       21   6 C                                       1.4581139
    20   7 N       22   6 C                                       1.4326402
    22   6 C       23   6 C                                       1.4064177
    23   6 C       24   6 C                                       1.3636951
    24   6 C       25   6 C                                       1.4096412
    25   6 C       26   6 C                                       1.4105979
    26   6 C       27   6 C                                       1.3667575
    27   6 C       28   6 C                                       1.4026652
    28   6 C       29   6 C                                       1.3679701
    25   6 C       30   6 C                                       1.4194530
    29   6 C       30   6 C                                       1.4117345
    22   6 C       31   6 C                                       1.3755426
    30   6 C       31   6 C                                       1.4253408
    32   6 C       33   6 C                                       1.3796169
    33   6 C       34   6 C                                       1.4072410
    34   6 C       35   6 C                                       1.3648387
    35   6 C       36   6 C                                       1.4092836
    36   6 C       37   6 C                                       1.4101539
    37   6 C       38   6 C                                       1.3664358
    38   6 C       39   6 C                                       1.4031192
    39   6 C       40   6 C                                       1.3672331
    32   6 C       41   6 C                                       1.4241194
    36   6 C       41   6 C                                       1.4190887
    40   6 C       41   6 C                                       1.4116900
    12  15 P       42   7 N                                       1.6671744
    33   6 C       42   7 N                                       1.4312755
    42   7 N       43   6 C                                       1.4594852
     9   6 C       44   6 C                                       1.3962658
    45   6 C       46   6 C                                       1.5305852
    45   6 C       47   6 C                                       1.5303843
     3   6 C       48   6 C                                       1.3892695
    44   6 C       48   6 C                                       1.3879974
     1   6 C       49   1 H                                       1.0882049
     1   6 C       50   1 H                                       1.0941339
     1   6 C       51   1 H                                       1.0937542
     4   6 C       52   1 H                                       1.0761502 (min)
     6   6 C       53   1 H                                       1.0960310
     7   6 C       54   1 H                                       1.0877306
     7   6 C       55   1 H                                       1.0874531
     7   6 C       56   1 H                                       1.0864039
     8   6 C       57   1 H                                       1.0875008
     8   6 C       58   1 H                                       1.0888579
     8   6 C       59   1 H                                       1.0863060
    14   6 C       60   1 H                                       1.0982075
    15   6 C       61   1 H                                       1.0850827
    15   6 C       62   1 H                                       1.0870372
    15   6 C       63   1 H                                       1.0857743
    16   6 C       64   1 H                                       1.0847927
    16   6 C       65   1 H                                       1.0870101
    16   6 C       66   1 H                                       1.0865242
    17   6 C       67   1 H                                       1.1007430
    18   6 C       68   1 H                                       1.0869503
    18   6 C       69   1 H                                       1.0857884
    18   6 C       70   1 H                                       1.0851785
    19   6 C       71   1 H                                       1.0860051
    19   6 C       72   1 H                                       1.0857408
    19   6 C       73   1 H                                       1.0873166
    21   6 C       74   1 H                                       1.0932496
    21   6 C       75   1 H                                       1.0891091
    21   6 C       76   1 H                                       1.0867245
    23   6 C       77   1 H                                       1.0780506
    24   6 C       78   1 H                                       1.0790773
    26   6 C       79   1 H                                       1.0797401
    27   6 C       80   1 H                                       1.0790174
    28   6 C       81   1 H                                       1.0794264
    29   6 C       82   1 H                                       1.0791759
    34   6 C       83   1 H                                       1.0773646
    35   6 C       84   1 H                                       1.0794551
    37   6 C       85   1 H                                       1.0798708
    38   6 C       86   1 H                                       1.0790136
    39   6 C       87   1 H                                       1.0792376
    40   6 C       88   1 H                                       1.0792306
    43   6 C       89   1 H                                       1.0901094
    43   6 C       90   1 H                                       1.0936370
    43   6 C       91   1 H                                       1.0881247
    45   6 C       92   1 H                                       1.0942899
    46   6 C       93   1 H                                       1.0864295
    46   6 C       94   1 H                                       1.0869563
    46   6 C       95   1 H                                       1.0875484
    47   6 C       96   1 H                                       1.0883021
    47   6 C       97   1 H                                       1.0865218
    47   6 C       98   1 H                                       1.0867341
    48   6 C       99   1 H                                       1.0768704

 * 7 distinct bonds (by element types)

   Z      Z             #   av. dist./Å        max./Å        min./Å
   1 H    6 C          51     1.0860381     1.1007430     1.0761502
   6 C    6 C          36     1.4250490     1.5329834     1.3636951
   6 C    7 N           6     1.4551742     1.4767446     1.4312755
   6 C    8 O           2     1.3795239     1.4107935     1.3482543
   7 N   15 P           3     1.6605161     1.6671744     1.6542358
  15 P   16 S           1     2.0998537     2.0998537     2.0998537
  16 S   16 S           1     2.0757935     2.0757935     2.0757935


optimized geometry written to: xtbopt.xyz


           -------------------------------------------------
          | TOTAL ENERGY             -135.441133668874 Eh   |
          | GRADIENT NORM               0.000044161545 Eh/α |
          | HOMO-LUMO GAP               2.357078195350 eV   |
           -------------------------------------------------

------------------------------------------------------------------------
 * finished run on 2024/12/16 at 17:30:47.790     
------------------------------------------------------------------------
 total:
 * wall-time:     0 d,  0 h,  1 min, 18.171 sec
 *  cpu-time:     0 d,  0 h, 10 min, 12.317 sec
 * ratio c/w:     7.833 speedup
 SCF:
 * wall-time:     0 d,  0 h,  0 min,  2.957 sec
 *  cpu-time:     0 d,  0 h,  0 min, 23.444 sec
 * ratio c/w:     7.928 speedup
 ANC optimizer:
 * wall-time:     0 d,  0 h,  1 min, 15.033 sec
 *  cpu-time:     0 d,  0 h,  9 min, 47.537 sec
 * ratio c/w:     7.830 speedup

