99
 energy: -135.402370597398 gnorm: 0.139072200972 xtb: 6.7.1 (edcfbbe)
C            6.90055200000000        2.43038100000000        0.41106400000000
O            5.57543300000000        2.94924300000000        0.36816500000000
C            4.65365900000000        2.23915600000000       -0.34952300000000
C            3.35996000000000        2.74615700000000       -0.30099700000000
C            2.28296200000000        2.12498900000000       -0.96868700000000
C            0.89783400000000        2.78215400000000       -0.89989600000000
C            0.61012300000000        3.56016500000000        0.39575000000000
C            0.69830000000000        3.71234400000000       -2.09998100000000
C            2.53683400000000        0.94043500000000       -1.72347300000000
S            1.15843800000000        0.11714700000000       -2.56205000000000
S            1.09865400000000       -1.76003600000000       -1.72925700000000
P           -0.32463900000000       -1.66471000000000       -0.17644800000000
N           -0.30589200000000       -3.01264200000000        0.80439200000000
C            0.83487100000000       -3.94457400000000        0.75371400000000
C            1.34646900000000       -4.53217900000000        2.07064700000000
C            0.61041300000000       -5.06258500000000       -0.27261200000000
C           -1.42426900000000       -3.28612300000000        1.73131400000000
C           -1.09447300000000       -3.08718900000000        3.21735000000000
C           -2.11356400000000       -4.64518200000000        1.55267300000000
N           -1.83819400000000       -1.51453400000000       -0.81931900000000
C           -2.24420700000000       -2.65086300000000       -1.64255900000000
C           -2.26829400000000       -0.25068500000000       -1.32158200000000
C           -2.45610000000000       -0.04612700000000       -2.70195600000000
C           -2.89622100000000        1.16871600000000       -3.21343800000000
C           -3.14661600000000        2.23883000000000       -2.36786200000000
C           -3.56217900000000        3.46404900000000       -2.92235500000000
C           -3.78256100000000        4.57814900000000       -2.12038000000000
C           -3.57658500000000        4.47886600000000       -0.75410500000000
C           -3.16975700000000        3.26015300000000       -0.19967000000000
C           -2.96473000000000        2.08479700000000       -0.97120100000000
C           -2.55322200000000        0.80411500000000       -0.41475200000000
C           -2.46378600000000        0.58330300000000        1.00329500000000
C           -1.23651300000000        0.16071200000000        1.59859900000000
C           -1.09772700000000        0.28398700000000        2.99627100000000
C           -2.14769700000000        0.67688100000000        3.82035200000000
C           -3.40064900000000        0.93353200000000        3.28245700000000
C           -4.46788400000000        1.25434400000000        4.14020900000000
C           -5.74444900000000        1.49225700000000        3.64123900000000
C           -5.96902400000000        1.39548500000000        2.27741500000000
C           -4.91030800000000        1.08112500000000        1.41957200000000
C           -3.58234500000000        0.87140100000000        1.88048600000000
N           -0.16002000000000       -0.34440200000000        0.80528000000000
C            1.16881500000000       -0.27220100000000        1.41647000000000
C            3.87396800000000        0.46009900000000       -1.84120500000000
C            4.28655900000000       -0.71082900000000       -2.74038100000000
C            5.30510400000000       -0.28346000000000       -3.80866600000000
C            4.83536300000000       -1.88416200000000       -1.91824300000000
C            4.90372300000000        1.11092800000000       -1.11959300000000
H            7.49563500000000        3.09454200000000        1.04475600000000
H            6.91954100000000        1.43214400000000        0.86329300000000
H            7.35623100000000        2.42485700000000       -0.58627100000000
H            3.20861700000000        3.65660900000000        0.27341200000000
H            0.13413100000000        2.00153600000000       -0.93106500000000
H            0.77338300000000        2.93522600000000        1.27910200000000
H           -0.42906300000000        3.89934300000000        0.41454500000000
H            1.22976200000000        4.45990000000000        0.49023900000000
H            1.42030000000000        4.53651400000000       -2.08589100000000
H            0.82529000000000        3.18500700000000       -3.05089100000000
H           -0.30540800000000        4.15043500000000       -2.09387400000000
H            1.69521900000000       -3.36589900000000        0.39800600000000
H            0.66135800000000       -5.26592000000000        2.50057000000000
H            2.29847000000000       -5.04985100000000        1.90096700000000
H            1.54537800000000       -3.74482600000000        2.80501700000000
H           -0.14699200000000       -5.78115600000000        0.05203500000000
H            0.30100300000000       -4.66479400000000       -1.24304200000000
H            1.54187900000000       -5.61823700000000       -0.43327200000000
H           -2.20303800000000       -2.54849000000000        1.50895700000000
H           -1.99788800000000       -2.78905700000000        3.76201300000000
H           -0.34458200000000       -2.31046800000000        3.37372900000000
H           -0.72913400000000       -4.00158500000000        3.69428000000000
H           -2.41293700000000       -4.82522000000000        0.51853200000000
H           -1.48624100000000       -5.47885300000000        1.87573000000000
H           -3.02707500000000       -4.68169700000000        2.15665100000000
H           -1.68481300000000       -2.70849600000000       -2.58262100000000
H           -3.31847300000000       -2.61216400000000       -1.86395300000000
H           -2.06975300000000       -3.59795800000000       -1.13131800000000
H           -2.23678100000000       -0.82648000000000       -3.42308700000000
H           -3.01311800000000        1.26731900000000       -4.28968200000000
H           -3.70580800000000        3.56061600000000       -3.99721300000000
H           -4.09792800000000        5.51897100000000       -2.56260900000000
H           -3.72085900000000        5.34076500000000       -0.10859300000000
H           -2.98810400000000        3.24882100000000        0.87354200000000
H           -0.16669600000000        0.03620100000000        3.49562400000000
H           -1.97612200000000        0.73416100000000        4.89254900000000
H           -4.31078800000000        1.31134500000000        5.21483300000000
H           -6.55870200000000        1.73861000000000        4.31734900000000
H           -6.96433200000000        1.55735200000000        1.87231000000000
H           -5.13833000000000        0.99054700000000        0.35776600000000
H            1.95783000000000       -0.46285200000000        0.68651500000000
H            1.29306600000000       -1.02359100000000        2.20349700000000
H            1.37326900000000        0.72140200000000        1.82973200000000
H            3.43092200000000       -1.08217900000000       -3.30557700000000
H            6.25798500000000        0.03667100000000       -3.37350300000000
H            5.51613300000000       -1.11948800000000       -4.48469300000000
H            4.91492100000000        0.54548700000000       -4.41111100000000
H            4.13410600000000       -2.18834500000000       -1.13376800000000
H            5.78532000000000       -1.63830000000000       -1.42993800000000
H            5.01204300000000       -2.75177000000000       -2.56549300000000
H            5.91504300000000        0.72187700000000       -1.19461200000000
99
 energy: -135.424903896329 gnorm: 0.059591421708 xtb: 6.7.1 (edcfbbe)
C            6.89605706374660        2.42758526485834        0.40687118361649
O            5.56974659146825        2.92534870135590        0.35850298032341
C            4.64472184798436        2.23321456603407       -0.35886981415121
C            3.34765577702153        2.74305163434591       -0.30792124146267
C            2.28574615796099        2.12853841851175       -0.95944236750070
C            0.90112236460870        2.76894836780008       -0.90046697191699
C            0.62118991888826        3.55075751731473        0.39060997602011
C            0.70541010970296        3.70172301454879       -2.10062558148035
C            2.55965726871308        0.95854645881891       -1.70581040125526
S            1.18144439289324        0.12937773434873       -2.51439096545429
S            1.13297955774321       -1.75191776083435       -1.65242393041367
P           -0.36298855402523       -1.66433896653852       -0.13523807895476
N           -0.30667020401370       -3.03147862487943        0.82248786796075
C            0.84870348750073       -3.94751646419070        0.73331320676967
C            1.33804626369924       -4.52469281114366        2.06364698908359
C            0.61268141074727       -5.06821708711078       -0.28067451931675
C           -1.43895816362304       -3.28567754166472        1.73375155503081
C           -1.09402856487405       -3.08644462705869        3.21557120669722
C           -2.11033228677685       -4.64821677954114        1.54721457422670
N           -1.86784458598990       -1.51057410883216       -0.81256654935280
C           -2.24902598296625       -2.65295899362351       -1.64102187650282
C           -2.27197769497876       -0.23127365503745       -1.32046696061549
C           -2.43854297877240       -0.04149252625361       -2.70267416061325
C           -2.88357747808533        1.15200053908287       -3.21307042246735
C           -3.14286295656184        2.23660525220628       -2.36804772104690
C           -3.55923438107076        3.46599380445602       -2.91575941918952
C           -3.77704448422913        4.56065818983132       -2.11473234379216
C           -3.56400609111433        4.44959755969888       -0.74138622236303
C           -3.16377273576661        3.24867565836373       -0.18507141059468
C           -2.96404828885326        2.08573582416377       -0.96493143783943
C           -2.56410441527389        0.80659435262507       -0.42626040750040
C           -2.46298324062933        0.59738217616888        1.01563350115892
C           -1.25575959656025        0.17904064097917        1.60568134704635
C           -1.10385556098478        0.27012045278962        2.99936569100986
C           -2.13361197677213        0.66864107071039        3.81600819449250
C           -3.39940058409282        0.93663825776637        3.28443106364066
C           -4.47335688807040        1.25457158972209        4.13744390763413
C           -5.73002072324533        1.48912744064023        3.63364608896422
C           -5.94364767773938        1.38889198903666        2.25912584974218
C           -4.89922969735213        1.09219988049242        1.40447108426908
C           -3.58155141827750        0.88643655322942        1.87595537996515
N           -0.17059799270461       -0.31393423380691        0.81555024232166
C            1.16516359271449       -0.26416571663467        1.41448373862641
C            3.87635704383615        0.47128060850277       -1.84424993089817
C            4.27394391569682       -0.70313144854913       -2.73265004995554
C            5.29646053214984       -0.27615224703247       -3.79689608597310
C            4.82904192461382       -1.87584450784893       -1.91445770926187
C            4.89472897900782        1.10607828567889       -1.13100444882760
H            7.46743614401552        3.10534117750045        1.04368396989404
H            6.92095540010399        1.42782462624214        0.84992141359491
H            7.35209978271493        2.41829017657506       -0.58704121731448
H            3.19630156809105        3.64614544125189        0.26319880044678
H            0.14385725822100        1.97876524595466       -0.95443504136387
H            0.78199306979211        2.93350660703968        1.27382294049798
H           -0.41897661827664        3.87751761488275        0.39617521409356
H            1.23512778596067        4.44709439388940        0.47712865418433
H            1.42435499814201        4.52148756837388       -2.07602841585630
H            0.83043943010100        3.17085513830946       -3.04448848609350
H           -0.29676209248609        4.13227327091623       -2.08569285620466
H            1.68644379508292       -3.34153766172525        0.35987124299975
H            0.65530749809528       -5.25528416260751        2.49010796366827
H            2.28321517082663       -5.03809867665970        1.88274892078663
H            1.53283017849968       -3.74404243761820        2.79734834518827
H           -0.14129126634129       -5.77613779772425        0.05669721774207
H            0.30065295433180       -4.65723230581147       -1.24072926213678
H            1.54131478654873       -5.61575522437097       -0.43631480151214
H           -2.19099316842711       -2.52590956876045        1.48200347771030
H           -1.99459433594960       -2.78483545456273        3.74988269291622
H           -0.34902702200752       -2.30889410807008        3.36227039644238
H           -0.73107288974100       -3.99985816232248        3.68286659163880
H           -2.40499543324208       -4.82483778515113        0.51503415911104
H           -1.47943417558807       -5.47128426188144        1.87597412562033
H           -3.01593555664968       -4.66912903793614        2.15374058754991
H           -1.68843202656610       -2.70700427190781       -2.58021938860266
H           -3.31559105672245       -2.59587771724805       -1.86499764323412
H           -2.06654186976122       -3.58474632136626       -1.10488696787600
H           -2.23022204395464       -0.83403228231976       -3.40641887010762
H           -3.01283539157523        1.25208703484472       -4.28187251132483
H           -3.70061942159246        3.55319946498963       -3.98518764833526
H           -4.09392534640491        5.49988237498788       -2.55019367815476
H           -3.70966304632621        5.31017037804451       -0.10194014814867
H           -2.99404269184237        3.22349064759613        0.88338680367598
H           -0.16374040988025        0.03811505777037        3.47792234381637
H           -1.96343130591221        0.73983689389251        4.88137220475650
H           -4.30917170460211        1.30690390331386        5.20543449705161
H           -6.54527130225325        1.73486693185276        4.30202899900857
H           -6.93616625199867        1.54554367490824        1.85772555917647
H           -5.11676801938739        0.99963399480747        0.34804788947550
H            1.93381645089560       -0.45878592617852        0.66134603223369
H            1.29323800461478       -1.01158476265329        2.20504085685196
H            1.35910266584494        0.72751098827085        1.82325673242845
H            3.39969573621396       -1.06659403751794       -3.28018716304876
H            6.24488185615460        0.03709295527693       -3.36211896003576
H            5.50175252212648       -1.11254758690424       -4.46592771461918
H            4.90977734126526        0.54691576469097       -4.39787426157460
H            4.12861862292998       -2.18085800078022       -1.13631508952465
H            5.77607629680291       -1.62482919599650       -1.43673083666112
H            5.00436247474951       -2.73437472433146       -2.56361750269316
H            5.89802865806987        0.71438544272216       -1.20747776803711
99
 energy: -135.432558216485 gnorm: 0.014446819706 xtb: 6.7.1 (edcfbbe)
C            6.88957794713525        2.42362267699632        0.39992782275372
O            5.56376429023813        2.90772537011360        0.35365106280491
C            4.63901848590820        2.23194533589277       -0.36335559683703
C            3.34040246875922        2.74407330523696       -0.31108836561395
C            2.28767774528143        2.12770121420841       -0.95103886599493
C            0.90489427809043        2.75009323095379       -0.89963622593488
C            0.62261074001216        3.53325686215391        0.38474598179341
C            0.71377137538162        3.68246150462854       -2.10245574092925
C            2.56674322384157        0.95925841318390       -1.68467758206672
S            1.19287483615605        0.12570788464058       -2.47531169405725
S            1.15066177588896       -1.73787004632245       -1.56862219372126
P           -0.38667029358745       -1.65818158722735       -0.10064097702522
N           -0.30200152104946       -3.03955079039398        0.83243151845197
C            0.85679020552530       -3.94877942733734        0.71508558734312
C            1.34396218237939       -4.51728627157067        2.04644480599105
C            0.61480343844206       -5.06886298901082       -0.29314848050255
C           -1.44599880084540       -3.28246527831520        1.73178140932690
C           -1.10643135525215       -3.08010830655295        3.21313794365392
C           -2.11494988670082       -4.64285422213994        1.54649164416213
N           -1.88478489787404       -1.50861591395991       -0.80473697513981
C           -2.25418277071188       -2.65588719230077       -1.63374382519517
C           -2.27107689008075       -0.21956110098473       -1.31522296569546
C           -2.42607274799993       -0.04582789697762       -2.70149671249788
C           -2.86891008707059        1.13650636243777       -3.21088494489470
C           -3.13254432555030        2.22989724018789       -2.36553713742910
C           -3.55244448984512        3.46286298359100       -2.90515936342954
C           -3.76801098310119        4.54282976850946       -2.09963801282413
C           -3.55241559029220        4.42037891843694       -0.72009557353567
C           -3.15797690225890        3.23079325136861       -0.16628891743279
C           -2.95503612504296        2.08067037056927       -0.96004102106132
C           -2.56246523886227        0.80501401730978       -0.43441176216575
C           -2.45512283496383        0.60689540739135        1.02635040373455
C           -1.26607287357533        0.19669842639731        1.60974076754014
C           -1.10242959398993        0.26761348022443        3.00391006465987
C           -2.12168187013570        0.66583868792588        3.81497490380745
C           -3.39415483927452        0.94072246221729        3.28430935843300
C           -4.47611673440224        1.25602851390559        4.13039092900626
C           -5.71874916123110        1.48741144928128        3.61716675823463
C           -5.91996465424945        1.38846919217872        2.23295264334148
C           -4.88273788012657        1.10372262310873        1.38513234671204
C           -3.57358204696887        0.89662146420993        1.87271828863541
N           -0.17334182542516       -0.27662364321245        0.81553553105242
C            1.16368459565771       -0.24238031183736        1.40971340881240
C            3.87164582483429        0.47277809396562       -1.83559669949940
C            4.25349935131126       -0.69581799495364       -2.72378915832279
C            5.27524489361826       -0.26832027547792       -3.78642651116962
C            4.81466631331897       -1.86592514308990       -1.90795043269166
C            4.88854276140418        1.10555199755829       -1.13718712770373
H            7.43801360475693        3.11348131015985        1.04006087760284
H            6.92661044033168        1.42129395937047        0.83587787791446
H            7.34873481536561        2.41537916025428       -0.59160995703283
H            3.19168581142580        3.64417427072413        0.25802810630379
H            0.15539856313207        1.95190033030380       -0.97063261875138
H            0.79121812896511        2.92545136922207        1.27001865890848
H           -0.41856127497280        3.85051115797225        0.38334853412943
H            1.23461723926404        4.42764264011745        0.45462150349940
H            1.43291549714482        4.49754373897740       -2.06932313404374
H            0.84003649685956        3.14664068264214       -3.04005626123349
H           -0.28766401361477        4.10786561058639       -2.08246933459501
H            1.67251693917171       -3.32299829096690        0.32465913061205
H            0.65174547499337       -5.24033490266351        2.46343430653320
H            2.28439630145079       -5.03220731789004        1.86575501325452
H            1.52744983687163       -3.73641869649480        2.77747485786143
H           -0.13618945888582       -5.76889371637561        0.05611211004601
H            0.29978883846457       -4.65250530856060       -1.24717125163578
H            1.54089294525226       -5.61327223555223       -0.44800155992594
H           -2.17714150143980       -2.50777335047765        1.45594641313620
H           -2.00426650725082       -2.77723544005483        3.74462302365388
H           -0.36265188040298       -2.30224553361924        3.34725677828569
H           -0.74058162712374       -3.99290273442368        3.67059263043240
H           -2.40085945327192       -4.82181597274539        0.51465061926958
H           -1.47461482110911       -5.45378863463398        1.87831348647111
H           -3.01691497731063       -4.66251716059271        2.15283010570324
H           -1.68924295070568       -2.71093777660830       -2.56892439110841
H           -3.31626958547480       -2.58900681216165       -1.86206419352247
H           -2.06542693402346       -3.57188489114665       -1.07600971206614
H           -2.20798843388607       -0.84663558472930       -3.38813076872531
H           -3.00687547208571        1.24572730712574       -4.27490717484328
H           -3.69282225290735        3.53998537819691       -3.97264610310611
H           -4.08798761064279        5.48317453883114       -2.52325751116855
H           -3.69704258098531        5.28217731928870       -0.08619259507318
H           -2.99450663170120        3.18669336902637        0.89924337052987
H           -0.15640900128983        0.03353820672723        3.46192081245669
H           -1.96203313682953        0.74321371642154        4.87862587606481
H           -4.30470931958240        1.30117547241373        5.19515888290966
H           -6.54079735480869        1.72906558858064        4.27387900226128
H           -6.91239126317934        1.53518429754941        1.83460107379218
H           -5.08152450850847        1.01750362894127        0.32810248183224
H            1.91049196253797       -0.43763028053362        0.63649079272709
H            1.29859813853686       -0.99220789449328        2.19641287828754
H            1.35165108501092        0.74738435524658        1.81746774995830
H            3.36440764831732       -1.05194430666101       -3.25529616408524
H            6.21792170160179        0.03815524064401       -3.34201349594502
H            5.47906109046069       -1.10530354011406       -4.45062835105257
H            4.89312291417483        0.55554640507777       -4.38301081036265
H            4.11607136578410       -2.17315781379690       -1.13293561405214
H            5.75928066566477       -1.60426025946499       -1.43864519555190
H            4.99145070926299       -2.71564322255755       -2.56244870482517
H            5.88848382447444        0.71487950579820       -1.21754536861073
99
 energy: -135.434866357753 gnorm: 0.012471067840 xtb: 6.7.1 (edcfbbe)
C            6.88617987189028        2.42395612705860        0.39356286488988
O            5.55972679761205        2.90236025509135        0.35504230132200
C            4.63518198631375        2.23271906999709       -0.36122924049365
C            3.33666688258188        2.74560127427421       -0.30615956787513
C            2.28313162410794        2.12187544424324       -0.93859119822820
C            0.90008045810683        2.73094390124019       -0.89685252346493
C            0.61338405191699        3.51676060667982        0.38183788332433
C            0.71744658089931        3.65747767426627       -2.10562492074566
C            2.55774949014862        0.95319603992413       -1.67017505561568
S            1.18093604578571        0.10823133427539       -2.43714720483833
S            1.16913246077071       -1.75293770596881       -1.52365797403770
P           -0.38480787893516       -1.65018861975070       -0.08621725550872
N           -0.29777057514275       -3.03545286792898        0.83253319749208
C            0.85867588469893       -3.94371850071389        0.69960109833992
C            1.35069351110639       -4.50936287956865        2.02757072098314
C            0.61051514605497       -5.06412857121072       -0.30655318629770
C           -1.44949271347934       -3.27421065965250        1.72520149109893
C           -1.11685165957058       -3.06824851386856        3.20690263174480
C           -2.11741756310430       -4.63478260056819        1.54278937131251
N           -1.88064295664083       -1.50983439730862       -0.79767126711111
C           -2.25334952327011       -2.66120701669436       -1.61905684028181
C           -2.26114517551057       -0.22150575384562       -1.31072607138233
C           -2.40958498818212       -0.05226208678551       -2.69961422692470
C           -2.85244112832178        1.13021632892149       -3.20758669957818
C           -3.11787690024962        2.22337356162659       -2.35970994957225
C           -3.54158999168095        3.45844036002558       -2.89212021465229
C           -3.75792890852818        4.53215820855609       -2.07840369320611
C           -3.54120032885252        4.40437143762639       -0.69759342046055
C           -3.14571813267959        3.21499534813088       -0.15005518051846
C           -2.94041733064083        2.07349527722042       -0.95593909294955
C           -2.55025586621375        0.80044131396765       -0.43395211119889
C           -2.44424040525783        0.60832204688433        1.03111832691829
C           -1.25992756659331        0.20405518308299        1.61445721353177
C           -1.09541907832540        0.26951370685819        3.01058366454116
C           -2.11750553741081        0.66611543551421        3.81797034567904
C           -3.38890902247006        0.94309324356631        3.28140958219211
C           -4.47792407221279        1.25664211843218        4.11983424403422
C           -5.71655797243616        1.48482897506213        3.59542493159288
C           -5.90830925580273        1.38973913846295        2.20759022052206
C           -4.86575522563131        1.11241799423929        1.36718755312356
C           -3.56296610738323        0.90086127778651        1.87047187988145
N           -0.16618867973984       -0.25376863114211        0.81176564408714
C            1.17047320071500       -0.21333945151751        1.40224746554391
C            3.86179075844614        0.47318054633121       -1.82878881747894
C            4.22987970290649       -0.69470435599510       -2.71560739266719
C            5.24723704111365       -0.26360503594837       -3.77855845213131
C            4.79603061826510       -1.86190154323554       -1.90090721551953
C            4.88329531872014        1.10783287001948       -1.13746848834867
H            7.42660862353457        3.11629353543897        1.03616919628033
H            6.93258501900524        1.41844254475163        0.82298965652703
H            7.34430174780420        2.42174272185008       -0.59890859022627
H            3.19104608466230        3.64890674584695        0.25889788128691
H            0.15768744030224        1.92713132595072       -0.97463396730979
H            0.79378073740494        2.91663241075645        1.27012764817903
H           -0.43008778815367        3.82378702160672        0.38070969947059
H            1.22107170100851        4.41511644287117        0.43876365587024
H            1.43979714523021        4.46928175525072       -2.06976624362338
H            0.84993942714053        3.11486688784340       -3.03838484027718
H           -0.28327138993216        4.08312334780342       -2.09166659424980
H            1.66495233925366       -3.31413770873634        0.29783394000864
H            0.65407467837546       -5.23014276795455        2.44164773637155
H            2.29049148874616       -5.02468280695599        1.84808606554032
H            1.53010575377964       -3.72575874350456        2.75638056647359
H           -0.13787072147848       -5.76376772374904        0.04885228016108
H            0.29193217261394       -4.64974284683145       -1.25983950464567
H            1.53639045504837       -5.60836033698669       -0.46507885613132
H           -2.17377025197482       -2.49637588495984        1.43980899819699
H           -2.01708997741346       -2.76788237318313        3.73541167905800
H           -0.37596102641775       -2.28721182693301        3.33870602337579
H           -0.74814404226870       -3.98008257661013        3.66383751624736
H           -2.40028174666666       -4.82061603501612        0.51130725986872
H           -1.47320130382880       -5.44068734063933        1.88002551925066
H           -3.01960571559076       -4.65421197201618        2.14822632439447
H           -1.68623357028731       -2.72488207033495       -2.55168807648929
H           -3.31463877642352       -2.58953825765034       -1.85042392767933
H           -2.06856170526401       -3.56942353206952       -1.04966381835951
H           -2.18412687638518       -0.85758701006528       -3.37785565374752
H           -2.99340551809045        1.24633605426902       -4.27070469241334
H           -3.68370472928263        3.53397709207898       -3.95963574681830
H           -4.08212912995220        5.47487175337667       -2.49154117505926
H           -3.68965299237362        5.26441989728759       -0.06263971734169
H           -2.98680405623192        3.15411691642537        0.91562970063188
H           -0.14641568653174        0.03374226122419        3.46006349570848