99
 energy: -145.079417827002 gnorm: 3.753636765729 xtb: 6.7.1 (edcfbbe)
C            0.72501500000000       -7.07100200000000        0.06972800000000
O            1.74298200000000       -6.34305700000000       -0.55136700000000
C            2.20763400000000       -5.10168700000000       -0.19091100000000
C            3.22679400000000       -4.53299000000000       -0.92705900000000
C            3.74942800000000       -3.27213100000000       -0.61776900000000
C            3.20701800000000       -2.60471900000000        0.46110200000000
C            3.81484100000000       -1.29244600000000        0.79379100000000
C            5.07076400000000       -1.39384000000000        1.34767200000000
C            5.70019000000000       -0.25535500000000        1.74757200000000
C            5.07555000000000        0.93723800000000        1.58684100000000
C            3.79057700000000        1.10714400000000        1.01484200000000
C            3.14704500000000       -0.09455900000000        0.61099700000000
O            1.94395000000000       -0.44319700000000        0.04627000000000
P            0.35338900000000        0.10030000000000        0.03815000000000
Se          -0.77024200000000       -1.18442400000000        1.20652300000000
S           -1.31483400000000       -2.48615300000000        1.10817500000000
C           -2.99229100000000       -3.08012300000000        0.94370000000000
C           -3.78642600000000       -3.38269800000000        2.03881700000000
C           -5.09123600000000       -3.84314600000000        1.84612300000000
C           -5.54454700000000       -3.97997500000000        0.53436000000000
C           -6.92721700000000       -4.46653000000000        0.28885000000000
C           -4.75392900000000       -3.67889900000000       -0.54747100000000
C           -3.48895400000000       -3.23365600000000       -0.32393900000000
N           -0.41054700000000       -0.01971100000000       -1.46184300000000
C           -1.31015300000000        1.00544400000000       -1.79532500000000
C           -2.47160700000000        0.37999500000000       -2.60809600000000
C           -0.76995300000000        2.19257700000000       -2.52400600000000
C            0.23769600000000       -0.68423300000000       -2.53683800000000
C            0.84069800000000       -2.00523600000000       -2.06899300000000
C            1.32188200000000        0.14274200000000       -3.21489100000000
O            0.23744200000000        1.60332800000000        0.86609600000000
C            0.91614300000000        2.79597300000000        0.75563900000000
C            0.00695800000000        3.83453400000000        0.64703500000000
C           -1.45018800000000        3.56354500000000        0.73947700000000
C           -1.92604700000000        2.73414900000000        1.73097500000000
C           -3.29245800000000        2.46352100000000        1.82854400000000
C           -4.15850900000000        3.04761800000000        0.90684600000000
O           -5.50975000000000        2.76374200000000        1.02394300000000
C           -6.47800600000000        3.30524800000000        0.13487600000000
C           -3.70657200000000        3.88143000000000       -0.09373000000000
C           -2.33937400000000        4.12192200000000       -0.15230200000000
C            0.34604600000000        5.14550000000000        0.49510800000000
C            1.66208000000000        5.48811200000000        0.44034000000000
C            2.60121000000000        4.50451000000000        0.54509000000000
C            2.27421200000000        3.13614600000000        0.71601800000000
C            3.57480800000000        2.51681000000000        0.96684000000000
C            4.14526700000000        2.92625000000000        2.32577800000000
C            5.52584200000000        2.26852100000000        2.15435600000000
C            4.44543700000000        3.19384400000000       -0.07855200000000
C            4.07623400000000        4.62868900000000        0.28350200000000
C            2.19111700000000       -3.13182100000000        1.22456400000000
C            1.70765200000000       -4.37521800000000        0.88354700000000
H           -0.27843500000000       -6.59463600000000        0.02445000000000
H            0.93606600000000       -7.27249200000000        1.15516200000000
H            0.62680000000000       -8.04720200000000       -0.47922200000000
H            3.67324200000000       -5.04272900000000       -1.78863200000000
H            4.56010000000000       -2.83944400000000       -1.21646400000000
H            5.57492000000000       -2.32943100000000        1.47773300000000
H            6.69005500000000       -0.32933300000000        2.18788300000000
H           -3.39390500000000       -3.26131300000000        3.03090500000000
H           -5.74420100000000       -4.09042700000000        2.67365400000000
H           -6.94681500000000       -5.49765800000000       -0.13991400000000
H           -7.50465800000000       -4.54615100000000        1.24158700000000
H           -7.47200700000000       -3.81773000000000       -0.41436900000000
H           -5.09989300000000       -3.78375100000000       -1.56172700000000
H           -2.86087100000000       -2.99375900000000       -1.19048200000000
H           -1.80721100000000        1.34705300000000       -0.87055400000000
H           -3.44879800000000        0.56084100000000       -2.11742100000000
H           -2.54180600000000        0.82213100000000       -3.61590900000000
H           -2.35166300000000       -0.72109300000000       -2.61090900000000
H           -0.00713800000000        2.71336100000000       -1.96661500000000
H           -0.47267300000000        1.96977300000000       -3.57013000000000
H           -1.64508700000000        2.89815300000000       -2.64661000000000
H           -0.48303600000000       -0.93557700000000       -3.33887000000000
H            0.26779900000000       -2.82915400000000       -2.59955900000000
H            1.86081800000000       -2.08220900000000       -2.50023000000000
H            0.76693200000000       -2.12736600000000       -0.99048700000000
H            1.54308000000000        1.06100700000000       -2.66161700000000
H            1.10532200000000        0.34890400000000       -4.28126800000000
H            2.24791800000000       -0.50807100000000       -3.25407000000000
H           -1.30013100000000        2.25676500000000        2.47467700000000
H           -3.65842400000000        1.82146300000000        2.59373300000000
H           -6.33566400000000        4.41464300000000        0.08602100000000
H           -7.50947500000000        3.18372900000000        0.55076600000000
H           -6.48836900000000        2.81579900000000       -0.85491400000000
H           -4.40416700000000        4.32968300000000       -0.80846600000000
H           -1.99328900000000        4.77673900000000       -0.94259000000000
H           -0.39553700000000        5.92211100000000        0.41629300000000
H            1.94102100000000        6.53059100000000        0.31495200000000
H            3.59720900000000        2.36749200000000        3.13498500000000
H            4.20003700000000        3.94102500000000        2.58129200000000
H            6.25296100000000        2.80178500000000        1.60929300000000
H            5.86412400000000        2.05858800000000        3.22977700000000
H            5.49304700000000        3.03351100000000       -0.00774500000000
H            4.03208600000000        2.97941900000000       -1.11258600000000
H            4.58727300000000        4.95598900000000        1.15810800000000
H            4.24503700000000        5.30430800000000       -0.59475300000000
H            1.80673900000000       -2.57326400000000        2.06438700000000
H            0.89760300000000       -4.82409800000000        1.47145600000000
99
 energy: -145.900904636240 gnorm: 0.346839756477 xtb: 6.7.1 (edcfbbe)
C            0.72351645768446       -7.07178744672943        0.07179016313506
O            1.74453209064328       -6.34269786380021       -0.55353001849187
C            2.20586153335766       -5.10314334167458       -0.18989941560047
C            3.22962871895503       -4.53246522050068       -0.93000675533639
C            3.74840255461188       -3.27511875090553       -0.61865275380598
C            3.20824047418942       -2.60183391713783        0.46004941934049
C            3.81634261166332       -1.29583395698775        0.79570169720223
C            5.07188211388277       -1.39444609907146        1.34715729631844
C            5.70387463777333       -0.25462318394663        1.74878914187439
C            5.07517848718719        0.93937703055733        1.58711870351281
C            3.79210698403539        1.09604285869052        1.01324038235017
C            3.14987993321234       -0.09335827325534        0.61256846395206
O            1.93869418225805       -0.43581554449166        0.04343546474637
P            0.36803328736087        0.11728045082408        0.02486705311364
Se          -0.67689573363737       -0.94697021616025        1.25324747420929
S           -1.39316722819059       -2.72738371959284        1.09114253754178
C           -3.01327692084841       -3.08860609794805        0.94047942511492
C           -3.78974336492723       -3.38352482435443        2.03957867447737
C           -5.08954505544212       -3.84273239576443        1.84488616892820
C           -5.54815338384573       -3.98148617508784        0.53575756940969
C           -6.93096025739527       -4.46899212165750        0.28979644221443
C           -4.75500769937948       -3.67919104473104       -0.54877502438247
C           -3.48901521299092       -3.23315303354632       -0.32885464969509
N           -0.40743520804221       -0.01969734698420       -1.46189092477329
C           -1.31724269670341        1.00683791940295       -1.79643862288601
C           -2.47443911585918        0.37910307778381       -2.60780710951356
C           -0.77370089548171        2.19671610754117       -2.52758419586919
C            0.24046094526860       -0.68574650797794       -2.54134068385298
C            0.83875588686405       -2.00940973628622       -2.07369461499484
C            1.32678364334828        0.14162538725105       -3.21745504598502
O            0.24189636941340        1.59376904532745        0.86305573328057
C            0.91768675312330        2.79714542258640        0.75514621294622
C            0.00139489905277        3.83523194185631        0.64680902799763
C           -1.44937252994686        3.56262480369297        0.73918369786560
C           -1.92964870712100        2.73241912691150        1.73295688681983
C           -3.29158844358289        2.46479398406667        1.82687350524253
C           -4.16358814180939        3.04722798512818        0.90636510513722
O           -5.51063756774639        2.76201993290557        1.02468418982495
C           -6.47860363956725        3.30774887969605        0.13606042796893
C           -3.70524491905322        3.88202305228715       -0.09445823840382
C           -2.34076749607318        4.12360302426202       -0.15434820187214
C            0.34538097212835        5.14806108562060        0.49543171044514
C            1.66457627873057        5.49111993895335        0.43979372057562
C            2.60120918389418        4.50382791233880        0.54293194846314
C            2.26943767517416        3.13949342363527        0.71700754898654
C            3.57218460128311        2.51669413204759        0.96631109490854
C            4.14609072053341        2.92119895442528        2.32749092810506
C            5.52364852150047        2.26345550038633        2.16487493310976
C            4.44178215772796        3.19680991738591       -0.08226115363501
C            4.07468016482549        4.63147743134595        0.27773795287631
C            2.19073600511446       -3.13281241673341        1.22361792634671
C            1.70446995272310       -4.37717238158598        0.88558432096786
H           -0.27684558062272       -6.59412089458900        0.02423993345797
H            0.93606081684982       -7.27234548774341        1.15264201882694
H            0.62820358310728       -8.04411275644153       -0.47749200293792
H            3.67205912858589       -5.04309652078293       -1.78744827292699
H            4.55831798514847       -2.84047077780159       -1.21506576168527
H            5.57433833736720       -2.33089321846628        1.47748477138412
H            6.68995198532448       -0.32851961302106        2.18822260677854
H           -3.39349688954314       -3.26126649141570        3.03135797907410
H           -5.74317907071970       -4.09004919469516        2.67313313542587
H           -6.94605562578635       -5.49530291283025       -0.13945990858926
H           -7.50362928667845       -4.54533320641197        1.23928787359785
H           -7.47132744694440       -3.81855932538432       -0.41325730576077
H           -5.10089171296815       -3.78407278638909       -1.56189446917832
H           -2.86080912873522       -2.99392157227739       -1.18950055097191
H           -1.80552783734842        1.34755229207669       -0.86955884977728
H           -3.44722346513860        0.56111649910992       -2.11811800415441
H           -2.54121111917870        0.81987867492244       -3.61448740506730
H           -2.35246835172426       -0.71887133946093       -2.61240856180006
H           -0.00634357683696        2.71345117986980       -1.96700054929076
H           -0.47206578416229        1.96984161022974       -3.56743990217933
H           -1.64235547066043        2.89709803450982       -2.64586208177589
H           -0.48355142892155       -0.93450593412381       -3.33715461221585
H            0.26947133848803       -2.82789924125584       -2.59629891326721
H            1.85895992664844       -2.08346981227729       -2.49632344812425
H            0.76829964187900       -2.12854970595594       -0.99205704139659
H            1.54339903078000        1.05987024778767       -2.66274240362535
H            1.10520073517029        0.34976509575335       -4.27892141752533
H            2.24625871050433       -0.50408779451369       -3.25397342614026
H           -1.29985918923354        2.25767003369322        2.47425852809212
H           -3.65931010447679        1.82093705048247        2.59444652110120
H           -6.33587946801873        4.41245635641102        0.08454013458330
H           -7.50611246804092        3.18261268877059        0.55131995861814
H           -6.48707899326411        2.81715886212849       -0.85374043565550
H           -4.40216652732486        4.32902320984787       -0.80747304919024
H           -1.99265477286638        4.77675176252827       -0.94255884757948
H           -0.39642685092765        5.92196639834073        0.41654381107951
H            1.94171268667945        6.53025432782955        0.31474174867689
H            3.59829691311240        2.36929902725008        3.13312779688481
H            4.19918062686358        3.94393977738164        2.58242923317608
H            6.25443287351805        2.80258291610065        1.60974713053764
H            5.86580887504095        2.05942911833784        3.22599672968692
H            5.49382118111798        3.03229418025377       -0.00963041260248
H            4.03438896428928        2.97939099680715       -1.10970694057867
H            4.58908688851210        4.95816498343293        1.15767060802704
H            4.24520151168851        5.30418654472555       -0.59217923775508
H            1.80642232964278       -2.57358461058012        2.06481946726786
H            0.89827849992710       -4.82338438216265        1.47121428526351
99
 energy: -146.010617191898 gnorm: 0.190325810806 xtb: 6.7.1 (edcfbbe)
C            0.72398719093147       -7.06495545913084        0.07581742932557
O            1.74916149704603       -6.34459566530725       -0.56506986904546
C            2.20020354324300       -5.10949581457895       -0.18948640258426
C            3.23058118945912       -4.53889353005112       -0.93759941295174
C            3.74134519398028       -3.28906393124117       -0.62145926615841
C            3.20696455195767       -2.60127152535271        0.45378160577949
C            3.82594298607823       -1.31189875008588        0.80508958512150
C            5.08700558365576       -1.40110057677761        1.34604320434933
C            5.72382205718945       -0.25577320660618        1.75277944238115
C            5.08206287578914        0.93551116025887        1.59804102892529
C            3.80612099457448        1.06495400544709        1.00775675812710
C            3.16928219478160       -0.10015699685706        0.61147735753470
O            1.95229818870841       -0.39123908807111        0.00486173362510
P            0.43062492664847        0.17935339200675       -0.04539172408841
Se          -0.72816344447339       -0.95705026338072        1.46570467439570
S           -1.34582094657746       -2.79143190974497        1.13198000478552
C           -3.02970163263256       -3.08828050651562        0.93395272168763
C           -3.80382530915395       -3.38828738125808        2.03962242758940
C           -5.09295540192240       -3.84449687778634        1.83773255085587
C           -5.56652366114351       -3.98960009900163        0.53462172695698
C           -6.94808280736251       -4.47883809219675        0.29315337006587
C           -4.76950287872107       -3.68073908833829       -0.55773771013144
C           -3.49977534010696       -3.22437306400666       -0.34963892623968
N           -0.38613568730927       -0.00446301424632       -1.48945908345896
C           -1.34188655518420        1.01308904617371       -1.80593554404164
C           -2.49131244650116        0.37519963933661       -2.60643036399287
C           -0.79228347267128        2.21375516092928       -2.53656015525325
C            0.25938298212798       -0.68960966263595       -2.56872701588892
C            0.82884850328259       -2.02661844428912       -2.09202803735304
C            1.35079516883604        0.14100967017484       -3.23304510984261
O            0.28391027251175        1.57394739592794        0.84129482016098
C            0.91563262335553        2.81077280442531        0.75319289812718
C           -0.02025800789631        3.84357738882720        0.64730889708996
C           -1.45950763321862        3.55654408880645        0.73622616496198
C           -1.94826748227465        2.72817533266197        1.73578199310765
C           -3.30382146669544        2.46571943313150        1.82159048176368
C           -4.18491677363935        3.04442185694281        0.90301105693607
O           -5.52186499864066        2.75066834491358        1.02936568297745
C           -6.47730932309763        3.31502836626241        0.14340106824286
C           -3.70622787219936        3.88135393132706       -0.09563583111276
C           -2.34705290979963        4.12831305969616       -0.16021965691295
C            0.33853324723069        5.16249931804414        0.50052329288726
C            1.66683076184093        5.50679562071868        0.43385035912743
C            2.59724774159091        4.51248263534778        0.52416476587633
C            2.25467288092126        3.15758173412540        0.72390580321207
C            3.56154800917100        2.50798635487054        0.96340079844123
C            4.14701521447044        2.90525429084125        2.33392180218748
C            5.51889053466906        2.24207627380862        2.21059616836510
C            4.42578806065265        3.21030050722133       -0.09282620963133
C            4.06747593963241        4.64929121615544        0.25307424454877
C            2.18652900444626       -3.13926441226691        1.21752246569499
C            1.69343090850977       -4.38672379362441        0.88972814550547
H           -0.26651662659868       -6.58323043031489        0.02229254272238
H            0.94048259323552       -7.27094903272278        1.14064309800570
H            0.64030641404422       -8.02536705721175       -0.46623010149479
H            3.66490978878319       -5.05327881731371       -1.78538172591972
H            4.54685304318632       -2.85153102346407       -1.20788739323256
H            5.57458398399956       -2.34563322970731        1.47706094180536
H            6.70056105972781       -0.32170970269453        2.19749978471180
H           -3.39683267917687       -3.26420747261514        3.03066612900625
H           -5.73784825446598       -4.08909569944770        2.66950210662621
H           -6.94246567316851       -5.48820695768387       -0.14095227808294
H           -7.50755431835701       -4.54135484044529        1.23197020320130
H           -7.47233346727841       -3.82443247223952       -0.40747901248220
H           -5.11722504119446       -3.78983645554125       -1.56790434179069
H           -2.85980715486148       -2.99388380089668       -1.19236913317776
H           -1.79138535668533        1.35205389574498       -0.85952942017180
H           -3.44888274035787        0.56524526864149       -2.11898769368749
H           -2.53989409945754        0.80127143716993       -3.61031040090033
H           -2.36270181118860       -0.71000959496877       -2.62572345819847
H           -0.00658239086220        2.71291789080529       -1.97449530690948
H           -0.46687391843735        1.97115439415540       -3.55387231351249
H           -1.63577678830496        2.90864653259564       -2.64405088099108
H           -0.49048842847518       -0.92477894150075       -3.33331255480403
H            0.27142224859028       -2.83937733639003       -2.57792014996285
H            1.85329848108704       -2.10644787664270       -2.46638180260087
H            0.77478224139133       -2.14124955237190       -1.01068183076227
H            1.55129904054965        1.05408774020676       -2.67328566579235
H            1.10669683487017        0.36410213020762       -4.27340350943065
H            2.25951332440606       -0.47510193345851       -3.26039746972282
H           -1.30493037497822        2.26536930017350        2.47318562777429
H           -3.67028067367888        1.81977799566028        2.59547175057016
H           -6.33554293540295        4.40535162294112        0.07241299917873
H           -7.48619395397222        3.16992532880661        0.56277520964127
H           -6.47361110861313        2.82974836192968       -0.84446355080790
H           -4.39037567486696        4.32748800749719       -0.80640316449439
H           -1.98814440104843        4.77861866864015       -0.94429017831051
H           -0.40770095324988        5.92837763673583        0.42050255521589
H            1.94994717410362        6.53793348648615        0.31030926044541
H            3.59710039751858        2.37601164397074        3.12893905203904
H            4.18962312853067        3.94587364993665        2.58901495846904
H            6.25117690756557        2.79468392224553        1.63767352241453
H            5.89161844395746        2.05600040180089        3.22819464232209
H            5.48478855173438        3.02592160249258       -0.03155838669190
H            4.04449783183753        2.97660243925782       -1.10254831793753
H            4.59807827487566        4.97937638246900        1.13553444108016
H            4.24749649071964        5.31987325950953       -0.58989628838707
H            1.80521587917201       -2.58169622846250        2.06381934501574
H            0.89495491472378       -4.82247441901760        1.47521794797927
99
 energy: -146.061500595072 gnorm: 0.098952563562 xtb: 6.7.1 (edcfbbe)
C            0.72679072446003       -7.05545759057666        0.07951204406326
O            1.75520488403608       -6.34774356615188       -0.58113580401161
C            2.19064724310316       -5.11898677532592       -0.19051192306307
C            3.22582990153646       -4.55187129474928       -0.94671532167487
C            3.72926473508475       -3.31060257836876       -0.62542000987152
C            3.20219140291748       -2.60679413861265        0.44670318150840
C            3.83189240922007       -1.33262164233343        0.80942378490162
C            5.10260151247335       -1.41050714380829        1.34007570280656
C            5.74547535372665       -0.26259200933641        1.75850767557039
C            5.08969038942755        0.92655781499102        1.61612638196491
C            3.82204802487574        1.03578267274763        0.99932558332734
C            3.18048825817961       -0.10907457659770        0.60429090619630
O            1.93525329419135       -0.33636029827407       -0.02487325334781
P            0.43850428570978        0.17971324287707       -0.01433832768926
Se          -0.74868649714746       -0.92085424219223        1.58006776543752
S           -1.25879151396218       -2.82147315738081        1.10124404260217
C           -3.01732323834341       -3.07149854759310        0.92128215191325
C           -3.79955028084927       -3.38127220746155        2.03007872191890
C           -5.08740991177402       -3.83592252095527        1.82568919001327
C           -5.58166749619559       -3.99166475699119        0.53333352511985
C           -6.96518216452010       -4.48856551592822        0.29785415574360
C           -4.77939456477993       -3.67651219720127       -0.56067433177518
C           -3.49887135286931       -3.21269361722052       -0.36718832738121
N           -0.35212475750495        0.01096835493411       -1.47342462410075
C           -1.36054058966590        1.01525390916308       -1.79563374330261
C           -2.50404038337046        0.37211339436754       -2.59609213689949
C           -0.81454650844875        2.22780136043090       -2.53781302953854
C            0.28524637790873       -0.69141836969431       -2.57415531174130
C            0.81974693692531       -2.04962932820554       -2.10679261125493
C            1.38040307847956        0.13777799010440       -3.24556538848046
O            0.33433181598782        1.54071250604628        0.82783035728007
C            0.91129632158787        2.82438076533969        0.73691187975906
C           -0.04589352653411        3.85313417941295        0.64507488503356
C           -1.47389336692611        3.54963959741198        0.73184312199743
C           -1.97229390130600        2.72152943007197        1.73454495245733
C           -3.32280287245792        2.46594678057964        1.81447198801181
C           -4.21144871557346        3.04078214363530        0.89790637468069
O           -5.53407239825541        2.73960602767134        1.03465609232455
C           -6.47629105097059        3.32161934778146        0.15284132178774
C           -3.71147195008231        3.87822965392703       -0.09772981278075
C           -2.35756152480447        4.13202946323467       -0.16662782575674
C            0.32823213912144        5.17841582453335        0.50620620183591
C            1.66355834592414        5.52611375956723        0.42168351495880
C            2.59166020895623        4.52665217325336        0.49911843753189
C            2.24151306272477        3.17903814309496        0.72743229947816
C            3.55259004396784        2.50094866949485        0.96092045043768
C            4.14450079338966        2.88702406560238        2.34457985983629
C            5.51104481147556        2.21695770433818        2.26116535162544
C            4.41025586511557        3.22296586252106       -0.10552943076983
C            4.05865182301631        4.66944574296912        0.21871565246746
C            2.18045430854739       -3.15189804184040        1.20849472908984
C            1.67908693821448       -4.40121228406495        0.89152839527013
H           -0.24965867638593       -6.56004133020028        0.02006579763631
H            0.95279304261495       -7.26095373184052        1.12966620571786
H            0.65383348932055       -8.00530579178091       -0.45378293388457
H            3.65028718764170       -5.07712266259660       -1.78419366860248
H            4.53255507316679       -2.87079631669281       -1.20102750915090
H            5.57303373045526       -2.36685495262260        1.47226923867095
H            6.71652430468084       -0.31737432505220        2.21080262044039
H           -3.39141395964339       -3.26499353986907        3.02403994504258
H           -5.72280808245560       -4.08377325896453        2.66372823935612
H           -6.94046171669634       -5.48364828927491       -0.14161170693302
H           -7.51791945144239       -4.53835325666250        1.22693393791896
H           -7.47917944147706       -3.83192456577973       -0.40004367395387
H           -5.13745132212626       -3.79575578500227       -1.56857674111069
H           -2.85496768652874       -2.99081840386157       -1.19983392665059
H           -1.77496385273164        1.35530866179685       -0.83735425028506
H           -3.45469021793379        0.57225091137356       -2.11953890768269
H           -2.53724494901890        0.77505224768891       -3.60420226582787
H           -2.38102534769527       -0.70357507272901       -2.63472196483584
H           -0.00998727327626        2.71082677508206       -1.97997332617386
H           -0.46411365757303        1.97005385662905       -3.53458276108008
H           -1.63033141053910        2.92863114649404       -2.64303142755492
H           -0.49343675336759       -0.89981235050117       -3.31565279817370
H            0.26415824461889       -2.85695333459021       -2.55817714752551
H            1.85215733272200       -2.14745964239561       -2.42715271325251
H            0.77542152904927       -2.15581187353734       -1.02580749997852
H            1.56621150413926        1.04880381906273       -2.68415454433651
H            1.11218297176444        0.38457885917355       -4.26740447629892
H            2.29010192540208       -0.44082928861629       -3.27532843641176
H           -1.31293074965079        2.27677364467840        2.46840929273504
H           -3.69119803247808        1.82090823113456        2.59476777833580
H           -6.33338145111140        4.39934728238527        0.06185544024615