99
 energy: -147.105837411924 gnorm: 0.000091345224 xtb: 6.7.1 (edcfbbe)
C            6.35414871535391       -4.14295030620208       -1.57425569128273
O            5.77560121261261       -3.60716960522137       -0.40459249355172
C            5.17258710909934       -2.40045365702135       -0.46612858787995
C            4.66599533260526       -1.90490824331864        0.73997708241766
C            4.02489998760246       -0.68887067424406        0.78073219660555
C            3.83970990232863        0.07043785557361       -0.37510628230892
C            3.11581485803988        1.39207095255054       -0.25579979708242
C            3.23345351495777        2.28787755705431       -1.48488432846587
N            1.70286705238881        1.19385002701553        0.12679098511363
C            1.13436134128725        1.95302005805448        1.27086050832224
C            1.34494857580698        3.45780493739875        1.13165370728603
C            1.60739830269164        1.43271772541383        2.60765971461970
C            0.75041673925456        0.63809672543263        3.36013451391936
C            1.12387189354899        0.12239344853147        4.58797798427265
C            2.38880382005621        0.39823497175600        5.10196077611406
O            2.87003649934845       -0.05349954487638        6.27780372540039
C            2.04898005441657       -0.86119583589139        7.09165915658884
C            3.24779048547533        1.21555327525028        4.36131948814988
C            2.86046067655157        1.72706768225006        3.14282466995156
P            0.58944231590967        0.32219074445026       -0.71543449953941
S            1.50755415484153       -0.52694271070743       -2.42100372814426
S           -0.00724704175456       -1.69802429269717       -3.16152244494236
C           -0.88197441994629       -0.59607643650715       -4.26304856373389
C           -2.24620643141417       -0.43814694678976       -4.08102540328002
C           -2.94769463833220        0.38775453765899       -4.94233524140729
C           -2.28680327597773        1.05079753627886       -5.96378844124188
C           -0.92115918192699        0.88403158230371       -6.13541946344580
C           -0.21116955306021        0.05161709834253       -5.28877665220279
N           -0.06884454105189       -0.84007110585228        0.27551206265477
C            0.88307958588031       -1.64672609322280        1.03484140127906
C           -1.23619413970929       -1.52188458760952       -0.19453621183472
C           -1.18383239421357       -2.89094856907230       -0.52041701856772
C           -2.29595499274854       -3.53190592601826       -0.98057549945289
C           -3.50242628938747       -2.83123519677403       -1.18705507775873
C           -4.63703720439388       -3.45933964623363       -1.74011022829596
C           -5.78449587283292       -2.75263789659346       -1.96839144690121
C           -5.84001908327834       -1.38531308906618       -1.66016734625708
C           -4.76113845946300       -0.75009964606485       -1.10970135307730
C           -3.56802199949813       -1.45574875883220       -0.84253839470524
C           -2.41990717536734       -0.82558422863348       -0.28080870249070
C           -2.51941160892605        0.55951024243612        0.20882807709753
C           -1.73643708187019        1.55405780681229       -0.33363938378911
C           -1.95428686622404        2.90248290945943        0.01023919700106
C           -2.90180845280891        3.23425163916550        0.93411771703324
C           -3.64966778627696        2.23832266071715        1.59458976592072
C           -4.58621158575070        2.56034876309786        2.59819581324470
C           -5.28860836739980        1.57781509017755        3.23748843385708
C           -5.07300225191403        0.23170301888747        2.90636260333016
C           -4.17930901962167       -0.11202930422671        1.93009660749559
C           -3.45470903086559        0.87942143172441        1.23433779307546
N           -0.71972878590273        1.19750607554905       -1.27473230252295
C           -0.47221392206504        2.14040369051995       -2.35980730205882
C            4.37771922895878       -0.40872454816927       -1.56122848995294
C            5.03232855347279       -1.62759233533907       -1.61445221600566
H            6.78443163005160       -5.09741259808402       -1.27737214571733
H            7.14521690971522       -3.49461341004797       -1.96177439198307
H            5.60302933248605       -4.31053159698288       -2.35214033183738
H            4.80636322552572       -2.49019947623696        1.63433493842476
H            3.67642998696605       -0.30804867658952        1.73024800421250
H            3.56251862697396        1.91755984088016        0.59144456933347
H            2.74405562539382        1.83865439928780       -2.34600971846797
H            4.28219410003161        2.44866532609196       -1.71958873871334
H            2.77710782262053        3.25500873690473       -1.29172389304335
H            0.05415987850918        1.75985490152038        1.22780313359261
H            0.94682519797774        3.81736947415413        0.18605903975677
H            0.81583927719326        3.95713546650706        1.93957144505911
H            2.39315811988278        3.73281936617116        1.19397613722749
H           -0.24033884808174        0.42109437083950        2.98378211000857
H            0.42095879083898       -0.48374604146553        5.13616403536631
H            1.14181386684371       -0.33093389497212        7.39584604637709
H            1.77799468480395       -1.79339599179339        6.58680573185429
H            2.64501802882038       -1.08948677163682        7.97299696633033
H            4.21821361795318        1.44106111673250        4.77266253402075
H            3.55018265387247        2.37306740308142        2.62195721931255
H           -2.74784947793405       -0.96241946716181       -3.28275142241236
H           -4.01165510227899        0.51074435565258       -4.81102120673578
H           -2.83668270884576        1.69443270380786       -6.63269811137836
H           -0.40796565219515        1.39298352250095       -6.93649112647088
H            0.85135339960030       -0.09430513851945       -5.41691407604591
H            1.52833929201314       -0.98427713811532        1.60604531384830
H            0.32064832634433       -2.27069725690002        1.72724572005643
H            1.51121918159442       -2.28143272269173        0.40426557460749
H           -0.25717602507934       -3.43191610490265       -0.41949479579206
H           -2.25562633789589       -4.58327513957500       -1.21990089043774
H           -4.57564575780902       -4.50829362793085       -1.98846297176294
H           -6.64924239110978       -3.23742049841665       -2.39433958471698
H           -6.74436612227533       -0.83235394695756       -1.86374746258509
H           -4.81107462321939        0.30498452973207       -0.88810954378755
H           -1.37698472455700        3.67919378644603       -0.46356457453148
H           -3.07658036982820        4.26991329944879        1.18278862252496
H           -4.73130750711716        3.59927837430757        2.85432103316748
H           -6.00476985755135        1.82885604368231        4.00457047436625
H           -5.61844801283666       -0.53701578310317        3.43217661338289
H           -4.01419423670022       -1.15142131651592        1.69117334554826
H           -1.43165064752079        2.42890698056352       -2.78746865418788
H            0.11601736296071        1.65453086013573       -3.13725522620906
H            0.06374399885256        3.03773270717823       -2.04117859242983
H            4.30321205123595        0.16444933469561       -2.47090333797182
H            5.43476795518122       -1.95836516053854       -2.55800619974014
