79
 energy: -119.987516269763 gnorm: 0.000021506163 xtb: 6.7.1 (edcfbbe)
C            1.83029869175117        1.77052819400455       -0.51285933855873
N            0.86529617507307        0.71802456478520       -0.23572963478260
C           -0.00693384081106        0.88252251167379        0.89566402259151
C            0.49305486293595        1.27918603841753        2.14719609714995
C           -0.35063733718295        1.37820343061521        3.21420679517684
C           -1.71328200722306        1.03464246474967        3.09138472162726
C           -2.57994275600158        1.06230179168255        4.20298626583444
C           -3.88839181486904        0.68716168712659        4.07854042958444
C           -4.38259235673240        0.26053291466275        2.83689364441164
C           -3.57117093454782        0.23462805729082        1.73631275418248
C           -2.22131823252346        0.63458647650236        1.82715817747936
C           -1.34257691909994        0.61136569346146        0.70751730017886
C           -1.84605989199866        0.30282916919156       -0.64321743468524
C           -1.36737848974847       -0.78072435882723       -1.35064433546514
C           -1.95187838873854       -1.15182435891801       -2.57678050722519
C           -2.96906126396414       -0.41340851349664       -3.10774635642370
C           -3.42245758353836        0.75945702902540       -2.46861674574471
C           -4.42117721166371        1.57354177853027       -3.04136263902482
C           -4.82348111143634        2.72329006055060       -2.42178720643860
C           -4.23360486741076        3.11067661421041       -1.20927789935008
C           -3.26990409324297        2.33714627739486       -0.62349481427220
C           -2.84783725142823        1.13204733399539       -1.22499045546849
N           -0.30640763605805       -1.56147731256389       -0.80674071971342
C           -0.29347633696684       -2.99597514135748       -1.07818760041434
P            1.17042974202299       -0.89346035873163       -0.48503250968671
S            2.50082485303787       -1.16126810314170       -2.09631007251328
S            1.17674426308710       -0.81722745865423       -3.63721708416612
C            1.28104556815450        0.95844536760583       -3.82267526056761
C            0.13989253501052        1.71735615326367       -3.62080251723565
C            0.21264921293648        3.09184773908454       -3.76875740671154
C            1.41416506710005        3.69272542566718       -4.10808635937510
C            2.54848391484022        2.92124378557490       -4.30931092511755
C            2.48655391893146        1.54572676537049       -4.17341656186007
N            1.83499713804808       -1.74029607723516        0.77968701240226
C            1.27049314385788       -1.71908155292038        2.09347327328982
C            2.09615617400247       -1.44186071373759        3.17732105186240
C            1.57468505396012       -1.42865808577481        4.45771184297852
C            0.22963784847299       -1.68099098510560        4.66695970334727
C           -0.58918754424623       -1.96390615573703        3.58804927560619
C           -0.07373578872582       -1.99373801192259        2.30417943031865
C            3.18930698178951       -2.19129740093195        0.66806445024529
C            3.47388551685767       -3.52609135408618        0.91925449405639
C            4.77601124002345       -3.97839787787167        0.80596308016580
C            5.78885955924576       -3.10661761658270        0.43786564931036
C            5.50396765210163       -1.77368311007935        0.19823585754285
C            4.20474947095585       -1.31062560269453        0.32201681648340
H            2.48570695276056        1.98536882405461        0.33372863785212
H            1.27870617262934        2.67613840090125       -0.76754288983117
H            2.44359122981308        1.48745076814737       -1.36746074108651
H            1.54314919642960        1.50031962911485        2.26114126201645
H            0.02314113261286        1.69514670591278        4.17549212497688
H           -2.18460174935866        1.37844491322128        5.15664317436936
H           -4.54653669039426        0.70868505097428        4.93339526303760
H           -5.41262124818545       -0.05108181018954        2.75506972021914
H           -3.95847911739993       -0.10171820774196        0.78683840261290
H           -1.58805455178491       -2.01804305281687       -3.10414758358608
H           -3.42072192429903       -0.70743588392149       -4.04273129882448
H           -4.85478498600244        1.27214362348398       -3.98316025210443
H           -5.58801384329105        3.34336199586476       -2.86363089607715
H           -4.54447914712916        4.03112659642631       -0.73915718207911
H           -2.81553408660758        2.65115708544352        0.30363181213854
H            0.39798363753481       -3.47985784875424       -0.38692153496147
H            0.02285171725329       -3.22829424991806       -2.09845822982587
H           -1.29420424874672       -3.39505196775799       -0.91711219918712
H           -0.79045921987082        1.23840790470408       -3.36158432230971
H           -0.67346695923492        3.68893483316179       -3.61717237004117
H            1.46712918693319        4.76425191685946       -4.22259809590218
H            3.48195570605494        3.38810802294988       -4.58246007961468
H            3.36133806635855        0.93275691839099       -4.33264877637735
H            3.14473084175517       -1.24087396341210        3.01595029355153
H            2.22464387487318       -1.21537504548790        5.29200275300220
H           -0.17694450163780       -1.66417096998339        5.66558731685689
H           -1.63703975299574       -2.17125566969393        3.74063072110933
H           -0.72358561631868       -2.22890165351319        1.47835787374279
H            2.67783149159255       -4.19612738061754        1.20736542843072
H            4.99822777048590       -5.01570480086440        1.00085921707009
H            6.80155823211825       -3.46573638079465        0.34562720305753
H            6.29138228161348       -1.08882010297822       -0.07475970082219
H            3.97590222642251       -0.26276537535227        0.17562418754118
