85
 energy: -112.475621322870 gnorm: 1.995308751403 xtb: 6.7.1 (edcfbbe)
C            1.38794500000000       -4.06138400000000        1.71450400000000
C            1.09247000000000       -3.26142300000000        0.49623100000000
C            0.65497400000000       -4.24313200000000       -0.58307300000000
N            2.13577100000000       -2.42088300000000        0.11308900000000
C            3.32364200000000       -2.87058200000000       -0.36377300000000
C            4.14207200000000       -3.62102800000000        0.65219400000000
C            4.25492700000000       -1.89212200000000       -1.02387600000000
P            1.59922700000000       -0.80330600000000       -0.03640400000000
Se           2.99826400000000        0.48861100000000       -0.04886800000000
S            3.98151800000000        1.33926500000000        0.74368200000000
C            4.34786300000000        3.04619900000000        0.36048800000000
C            5.39274300000000        3.29470600000000       -0.52069200000000
C            5.75364200000000        4.58536400000000       -0.88021900000000
C            5.02771000000000        5.63517900000000       -0.32400500000000
C            3.98929300000000        5.39658800000000        0.55133500000000
C            3.64248400000000        4.10208100000000        0.89932200000000
N            0.66276700000000       -0.44319600000000        1.40159700000000
C            1.33732000000000       -0.14749400000000        2.64184800000000
C           -0.77435100000000       -0.43350900000000        1.56046300000000
C           -1.18636300000000       -0.93239400000000        2.77937400000000
C           -2.55890700000000       -1.10404100000000        2.94888900000000
C           -3.46086800000000       -0.80515100000000        1.97595800000000
C           -3.04993200000000       -0.29092000000000        0.71926900000000
C           -1.69259000000000       -0.12687500000000        0.59301300000000
C           -1.47948800000000        0.52299100000000       -0.72335300000000
C           -0.54050200000000        0.23637300000000       -1.67213900000000
C           -0.57675700000000        0.86613000000000       -2.90458500000000
C           -1.60546800000000        1.78932600000000       -3.09455100000000
C           -2.52661000000000        2.07062100000000       -2.13520400000000
C           -2.50133300000000        1.43162600000000       -0.86697200000000
C           -3.35535300000000        1.98452700000000        0.20979300000000
C           -2.78106900000000        3.45100000000000        0.10296200000000
C           -3.32591800000000        4.08810400000000       -1.14580800000000
C           -3.61500400000000        3.08353600000000       -2.24952400000000
N            0.64754800000000       -0.57622600000000       -1.50106100000000
C            1.05131900000000       -1.20527600000000       -2.71762100000000
C           -4.06285400000000       -0.25105700000000       -0.35795100000000
C           -4.43664300000000       -1.77712800000000       -0.24400700000000
C           -5.32841500000000       -1.97275500000000        0.94809600000000
C           -4.93226000000000       -1.01218400000000        2.05496900000000
H            0.43723500000000       -4.50472200000000        2.12059800000000
H            2.08124600000000       -4.88797700000000        1.61845600000000
H            1.70524100000000       -3.35735300000000        2.53901500000000
H            0.14995200000000       -2.66315400000000        0.70878500000000
H            1.43003800000000       -4.96155500000000       -0.86824200000000
H            0.13975100000000       -3.74861800000000       -1.43173800000000
H           -0.15615300000000       -4.85534000000000       -0.09032400000000
H            3.12655400000000       -3.64655800000000       -1.18008300000000
H            4.13447300000000       -4.72393400000000        0.51865700000000
H            5.23699500000000       -3.36352700000000        0.56703300000000
H            3.88968000000000       -3.34705600000000        1.69144600000000
H            4.86539600000000       -1.34322100000000       -0.28426200000000
H            5.02205600000000       -2.52054900000000       -1.57000000000000
H            3.80373500000000       -1.28724700000000       -1.81698300000000
H            5.97363500000000        2.48828200000000       -0.96731600000000
H            6.56646300000000        4.77870100000000       -1.56567900000000
H            5.28138600000000        6.65796000000000       -0.58201300000000
H            3.41630100000000        6.19303500000000        0.99184100000000
H            2.83706300000000        3.86705500000000        1.58054400000000
H            1.57391700000000       -1.06120200000000        3.22529500000000
H            2.32144200000000        0.28518900000000        2.38398500000000
H            0.83048500000000        0.62626700000000        3.25015800000000
H           -0.44150400000000       -1.14457600000000        3.50294300000000
H           -2.92438000000000       -1.48920200000000        3.88797000000000
H            0.16157700000000        0.60619200000000       -3.61069800000000
H           -1.66915500000000        2.29449700000000       -4.03403900000000
H           -4.37454100000000        2.30794200000000       -0.02244800000000
H           -3.06021500000000        1.89650800000000        1.25769700000000
H           -1.69541700000000        3.42957000000000        0.11607100000000
H           -3.23125900000000        4.01006400000000        0.95074400000000
H           -4.18450000000000        4.74504000000000       -0.95084500000000
H           -2.50565700000000        4.74086100000000       -1.53000500000000
H           -4.60164000000000        2.63559300000000       -2.02087900000000
H           -3.66503500000000        3.54358000000000       -3.23385800000000
H            0.18677000000000       -1.55143600000000       -3.35082000000000
H            1.58583500000000       -2.14100000000000       -2.47279100000000
H            1.77375200000000       -0.60280700000000       -3.30827200000000
H           -5.08062300000000        0.08046000000000       -0.13339200000000
H           -3.77022300000000       -0.34926800000000       -1.40823600000000
H           -5.07739300000000       -2.01365500000000       -1.14104400000000
H           -3.52785200000000       -2.38837100000000       -0.25098100000000
H           -5.16323500000000       -3.02747100000000        1.27049900000000
H           -6.37936300000000       -1.82428600000000        0.64567100000000
H           -5.42369800000000       -0.03324600000000        1.92370000000000
H           -5.23194800000000       -1.50962400000000        3.00045200000000
85
 energy: -112.953989444872 gnorm: 0.409906272947 xtb: 6.7.1 (edcfbbe)
C            1.38335566013850       -4.06122718329970        1.72877859849656
C            1.08096180766203       -3.26967790904920        0.49502173206391
C            0.64565344955214       -4.24891081634069       -0.58340044892171
N            2.12736324248474       -2.40882261717619        0.11594696608614
C            3.33339039803552       -2.88193290786638       -0.37435718150710
C            4.15301645265708       -3.62509850541247        0.65897002485093
C            4.26508958970528       -1.89654647909258       -1.03085632708843
P            1.53142772251545       -0.84095989964770       -0.03036851345610
Se           2.89871535782851        0.40383912673732       -0.20281445936523
S            4.14682973356068        1.44794284558977        0.89039046076836
C            4.35640820605804        3.07400130982773        0.35562266242319
C            5.39715644363983        3.29726332553107       -0.52503412620983
C            5.75203276560318        4.58692432081810       -0.87846644827597
C            5.02843882650038        5.63697363482867       -0.32459415218067
C            3.98784597606615        5.39763287899873        0.55253192387743
C            3.64077620437322        4.10608083470940        0.89897547464252
N            0.65069647346271       -0.44120287526402        1.40088116606347
C            1.34547800282505       -0.14669665677452        2.63862389058610
C           -0.77140538721761       -0.44056715999464        1.56098037938418
C           -1.19261712776050       -0.93222996517282        2.77881464973475
C           -2.55854133328477       -1.10356380507750        2.95381989972873
C           -3.46449737451064       -0.80401324740944        1.97405109681448
C           -3.05094597789265       -0.29718515875836        0.72895962134583
C           -1.68816758824416       -0.12870948478610        0.58542399322346
C           -1.47476265206964        0.52160326762079       -0.71496989357349
C           -0.53141770230542        0.23906254145708       -1.67111388363976
C           -0.58142234125813        0.86942835327832       -2.90190798769889
C           -1.60506557360834        1.78754063643197       -3.09809005595664
C           -2.53239897280986        2.07032023185124       -2.13317498767610
C           -2.49796289736687        1.43699540806790       -0.87653445236241
C           -3.34529707673749        2.00845681315202        0.20774046434374
C           -2.78548083451739        3.46003715118361        0.10593187697142
C           -3.32026151286104        4.09849103110214       -1.15146547538386
C           -3.61745862654339        3.08360365545401       -2.24935155102536
N            0.64030011171262       -0.58254447901115       -1.49490076266396
C            1.05601045681860       -1.21399328823643       -2.71869038692107
C           -4.06851005412218       -0.27649145715872       -0.35691319887686
C           -4.44438844940572       -1.78411880326301       -0.25269742633245
C           -5.32892898632062       -1.97929430869756        0.94830206783375
C           -4.93445097843461       -1.01565336425757        2.06032074473845
H            0.44024606919912       -4.50362872173360        2.11867002363928
H            2.08144080602148       -4.88545639862233        1.61770861174767
H            1.70638817164302       -3.36174287270488        2.53636236659464
H            0.15545976686828       -2.66355906927917        0.70786399208672
H            1.42821700581704       -4.95809133295785       -0.86966637152733
H            0.14461733776003       -3.75074936492635       -1.43062121492569
H           -0.15331519306938       -4.85436701915021       -0.09395389244996
H            3.12542863966654       -3.64466316669127       -1.17947530187273
H            4.13234085191005       -4.72005647447053        0.52115041127546
H            5.23289918564014       -3.36447691132300        0.56704105517412
H            3.88944325320428       -3.34878597283970        1.68886214535714
H            4.86288093247996       -1.34174874277362       -0.28744094631152
H            5.02026887051604       -2.51863271243518       -1.56850840278749
H            3.80459510737948       -1.28712031842654       -1.81429336989595
H            5.97175130131690        2.48737175430708       -0.96540946724899
H            6.56540496651547        4.77812614386747       -1.56474055874050
H            5.28118484598357        6.65753095720693       -0.58205141829137
H            3.41650679548519        6.19514519200303        0.99166397674821
H            2.83701124970795        3.86885029890892        1.58089163296100
H            1.57224462439565       -1.05790625533938        3.22509579064681
H            2.32269468430625        0.28487759140631        2.38628827583083
H            0.83139643522007        0.62164258996235        3.24703691144141
H           -0.44507451415979       -1.14769566624978        3.50653845142372
H           -2.92448898526743       -1.48992233763127        3.88963870359034
H            0.16107278303884        0.61065722285781       -3.61486283952495
H           -1.66913231339081        2.29586365017054       -4.03710789255157
H           -4.37470904561389        2.29691282768556       -0.01940835092643
H           -3.06591267849522        1.88649467623850        1.25524133663700
H           -1.69666962594812        3.43192240860058        0.11835515102610
H           -3.22587343172658        4.01102388603609        0.95160340511971
H           -4.18374197885964        4.74342410914037       -0.95131596527206
H           -2.50786718613016        4.74310636900658       -1.53060037662100
H           -4.59964812134776        2.63485423368104       -2.02363139615215
H           -3.66500407091197        3.54394289395584       -3.23366070239617
H            0.19121381005537       -1.54736216217663       -3.34714863370508
H            1.58708712498821       -2.14182234791045       -2.47247504384133
H            1.77026177057830       -0.60425973177442       -3.30730815757443
H           -5.07439525586264        0.08919041693898       -0.13639336622519
H           -3.76897714393777       -0.33778630370743       -1.40556293488780
H           -5.07301661586774       -2.01629887489068       -1.14064510026257
H           -3.53103884504835       -2.38912085522567       -0.25140770906948
H           -5.16721163797962       -3.02486558696499        1.27185330889531
H           -6.37719871853645       -1.82603182507397        0.64824039889529
H           -5.42403262736233       -0.03689323657817        1.92623246018951
H           -5.23171283411026       -1.50464795500998        3.00096702891996
85
 energy: -113.092611711071 gnorm: 0.176996111895 xtb: 6.7.1 (edcfbbe)
C            1.37117862995191       -4.06490770112650        1.75549095569686
C            1.05983168782440       -3.29683728919377        0.49722940564364
C            0.62446338732417       -4.26546936571793       -0.58447690467959
N            2.10792841484221       -2.40819422489096        0.12232391001975
C            3.34322374682623       -2.90042433318817       -0.38751164375249
C            4.17051007392111       -3.63163473727731        0.66846434724325
C            4.28600203599882       -1.91360877624103       -1.04709862115608
P            1.43301628915944       -0.89268136069094       -0.00945594315791
Se           2.97726526600291        0.54052408420129       -0.32708036743215
S            4.22486637256705        1.46749665506519        0.96321777495686
C            4.37529828152351        3.08734403715148        0.35643916442776
C            5.40902705173327        3.30378440572625       -0.53383300686952
C            5.74993096015959        4.59448700976011       -0.87828973721475
C            5.02824818246962        5.64320611630294       -0.32377749483081
C            3.98349808200757        5.40386202239650        0.55326258455711
C            3.63872630819304        4.11289456883709        0.89816228143230
N            0.62448101531233       -0.43631704360605        1.40476564577951
C            1.36314016969197       -0.14541837479998        2.62714747656331
C           -0.77720439945255       -0.46292108894734        1.56259800978078
C           -1.21046802366382       -0.93678957132738        2.78395599749975
C           -2.56748859108124       -1.10100948079336        2.96934927590465
C           -3.47455563253060       -0.80727178142932        1.97999723664791
C           -3.05279585613182       -0.32019901121392        0.74335325011537
C           -1.68398847563425       -0.14347989402275        0.57479613525714
C           -1.46083180011841        0.52738751162114       -0.70064300807052
C           -0.51648680055855        0.25039822154951       -1.66524318265877
C           -0.58764155486573        0.88044653073146       -2.89848056034338
C           -1.61142560662346        1.78626532395951       -3.10917228233354
C           -2.54300675709926        2.07190007111911       -2.13865571938855
C           -2.48334996939815        1.45397365865206       -0.88988460217627
C           -3.31571649543052        2.06340548973790        0.19757515860822
C           -2.78851824106818        3.49897896805653        0.10915381360175
C           -3.30802334887294        4.12728858545493       -1.16596073133212
C           -3.62023389432473        3.09068550818701       -2.24976499916850
N            0.61013572581371       -0.61321582322223       -1.48163966372429
C            1.06468803904318       -1.23685347489108       -2.71018116261542
C           -4.07612071568659       -0.33803413854371       -0.35006033142858
C           -4.46700586720134       -1.81588270229534       -0.26974967150610
C           -5.33336227743048       -1.99771425838528        0.95092411149525
C           -4.94134741956645       -1.02863399657643        2.06963232024901
H            0.43974034342253       -4.50707244578537        2.12149635275495
H            2.08028097039661       -4.87690589967359        1.61822717052715
H            1.71255131205858       -3.37208600269445        2.53626125751485
H            0.16467481873969       -2.66730119163393        0.70648311511038
H            1.42166349381051       -4.94922378060358       -0.87727430042511
H            0.15812259251369       -3.75668936083907       -1.43323986418374
H           -0.15744611514959       -4.86377257226194       -0.10639410636518
H            3.11900383121826       -3.64473874097733       -1.18141894830496
H            4.12583903334397       -4.71503880852136        0.53277598996752
H            5.23011873754848       -3.36706059911585        0.56779374892948
H            3.88845600358146       -3.35394554432814        1.68448785317441
H            4.85428751859892       -1.33832661033365       -0.30137603315090
H            5.02810166232621       -2.52181101501604       -1.57261807622790
H            3.81389038579053       -1.29336324609892       -1.81161433296192
H            5.97055542098163        2.48465384442853       -0.96125305713260
H            6.56350236987438        4.78077798375757       -1.56229453494645
H            5.28154695756335        6.66000318473905       -0.58088006208300
H            3.41683319578671        6.20519693786816        0.99151982182088
H            2.83759973037541        3.87567250619107        1.58235102141125
H            1.56783688119179       -1.04912193366631        3.22299091772035
H            2.33437069500363        0.28661575497426        2.38540191934179
H            0.83549812191205        0.60617718811764        3.23501919834045
H           -0.46522534762200       -1.16094387004701        3.51890376458269
H           -2.92872432647001       -1.49366924907633        3.90105804289242
H            0.15470866039056        0.63194510355088       -3.62606437525889
H           -1.66992556442414        2.30023591451851       -4.04862656437342
H           -4.37500739911622        2.25433440066915       -0.00992125271951
H           -3.08335530208997        1.84895756939194        1.24494223996632
H           -1.69997668562013        3.45015756633608        0.12844278856845
H           -3.20857070420791        4.02777432604099        0.96269036726960
H           -4.18319965493470        4.74503905481009       -0.95609721838623
H           -2.50847302295137        4.76442960627288       -1.54025241703222
H           -4.59482420136435        2.63383850826094       -2.03272117732643
H           -3.66544462393259        3.54664269579142       -3.23493068924167
H            0.20451882917374       -1.53722327438186       -3.33869334631838
H            1.59718198172941       -2.15456075922412       -2.46921964043457
H            1.75854505291665       -0.60886755181104       -3.29776587556522
H           -5.05004055380597        0.12198115992273       -0.14690513770964
H           -3.76002372761007       -0.29548273281076       -1.39655991633712
H           -5.06748549986287       -2.03651686626650       -1.15377058118396
H           -3.54500735247424       -2.40207901564224       -0.25590982042804
H           -5.18439409376203       -3.02793954053039        1.28195969108024
H           -6.37566277401116       -1.83511478540332        0.65860027194842
H           -5.42837818861052       -0.05212733660734        1.93556230263211
H           -5.23415045585565       -1.49027891242071        3.01195627090222
85
 energy: -113.157892790449 gnorm: 0.086099911395 xtb: 6.7.1 (edcfbbe)
C            1.35683090591219       -4.06472339102757        1.77710514237803
C            1.04671238732714       -3.30155554987847        0.49979207331180
C            0.60655783775402       -4.27649603345996       -0.57978607729909
N            2.10523514568268       -2.37303860246845        0.12052704475744
C            3.35624546872201       -2.91418126994244       -0.40062113498029
C            4.18240640925571       -3.63854722721952        0.67733897240743
C            4.30998157632388       -1.93772126132490       -1.06988052610501
P            1.43594662000957       -0.86181929843722       -0.01455673155996
Se           2.93433110293516        0.67889285081007       -0.41536487350508
S            4.23992126460096        1.44717012919808        1.04227624721089
C            4.39416272122841        3.07727344611833        0.37433285313197
C            5.41646243390989        3.30230262539460       -0.53597743420505
C            5.74016485574161        4.59988421067124       -0.88077186080857
C            5.02470865694084        5.64926478654534       -0.32472152289545
C            3.97644729375752        5.40708856336632        0.54923808389926
C            3.64411385262875        4.11215762326014        0.90209143207962
N            0.63143637246830       -0.41662076116164        1.37685483412652
C            1.38948527690000       -0.14179857279830        2.60047623858564
C           -0.77250699165220       -0.49805083190822        1.55455218482082
C           -1.22690702197772       -0.95178722374626        2.78531076604834
C           -2.57978562980835       -1.10197070968408        2.99058614676298
C           -3.48640622839805       -0.82177486869165        1.98852698070158
C           -3.05063538313572       -0.35793939993040        0.75621561780310
C           -1.67724880616762       -0.16680059805675        0.56246716821217
C           -1.44139821580275        0.53761965987197       -0.68434641801889
C           -0.49607818435383        0.26441720492789       -1.65579660803014
C           -0.59206705633315        0.89496231829221       -2.89336359332243
C           -1.61861072922719        1.78767049150492       -3.12456193090286
C           -2.54793325275600        2.08189238873744       -2.14585987322347
C           -2.45727546246772        1.47910836189401       -0.90051531493976
C           -3.28021289828920        2.11667999603754        0.18568327615594
C           -2.79005079264702        3.54813291054772        0.11313770212014
C           -3.29631719631467        4.16727374826442       -1.18202876614782
C           -3.61835762430371        3.10729688817579       -2.25199993772951
N            0.59174555367863       -0.64006893422860       -1.45567534458596
C            1.07280642277316       -1.26594581844237       -2.68779411879560
C           -4.07700821401602       -0.40115298141211       -0.34237031751390
C           -4.49550198524644       -1.85525479102756       -0.28499528065068
C           -5.34642174875605       -2.02844618335767        0.95770275311133
C           -4.95128853155557       -1.05126913736261        2.07952477712774
H            0.43671630307510       -4.51368843814422        2.13330995676594
H            2.07699072509171       -4.86379352156036        1.61817276756410
H            1.72013910837420       -3.38376932613388        2.54038272602591
H            0.16407957189440       -2.67232138604937        0.70766877603540
H            1.41408603871624       -4.93787235526216       -0.88568000977443
H            0.17581251881094       -3.76361678980837       -1.43735382046757
H           -0.16864741632703       -4.88356898262986       -0.12819277343760
H            3.10235017407364       -3.64659694783987       -1.17897841875263
H            4.11498025624292       -4.71502117875319        0.55433336469585
H            5.22916046502398       -3.37364039926900        0.56985853773159
H            3.88627162012456       -3.35539212478447        1.68083132401007
H            4.84290639580550       -1.33670547781203       -0.32505766725916
H            5.04862063188296       -2.53571598431444       -1.58335389888576
H            3.82874700507898       -1.31126831563447       -1.81766446593368
H            5.97131684796954        2.47712066226983       -0.95324885830102
H            6.55700544497901        4.78533451368200       -1.56079484978360
H            5.28264249353325        6.66455726578975       -0.57802449207700
H            3.41699996629603        6.21706301898541        0.98680622276648
H            2.84126464428346        3.88487902498792        1.58664366885214
H            1.56791314628022       -1.03935299803607        3.20617278235212
H            2.35668135435163        0.29156116154018        2.36802264632178
H            0.84170530132261        0.58747302441950        3.20973631815858
H           -0.49583541375590       -1.18355608181948        3.53686695648274
H           -2.93675011984020       -1.49409106180049        3.92438758900085
H            0.14527326128702        0.66695137518374       -3.64008049325744
H           -1.67419492468153        2.30109857660561       -4.06818461274619
H           -4.36843577690299        2.19156507094454       -0.00090889449220
H           -3.09879616206555        1.79833509727464        1.22518339372354
H           -1.70132082724672        3.49699234096437        0.14280317037896
H           -3.18467484038215        4.06884142425718        0.97607064267982
H           -4.18567039431013        4.75794894326247       -0.96987099700638
H           -2.51171879985514        4.80616677155051       -1.56260974799983
H           -4.58673296047837        2.64176383310312       -2.04313263965070
H           -3.66468863345650        3.55495683369732       -3.24034537692943
H            0.21828488392940       -1.53353430793056       -3.32097501931469
H            1.61540947381896       -2.17454088121622       -2.45663507840575
H            1.74251983840979       -0.61619215134489       -3.27160847888492
H           -5.00860671717281        0.16516506392944       -0.15789066852999
H           -3.73909249469047       -0.24036087560851       -1.37901946428370
H           -5.06995010188618       -2.07897489804978       -1.17206202863864
H           -3.57438782443620       -2.43964534377305       -0.26228061030665
H           -5.21636229544264       -3.04635441368309        1.30542542493448
H           -6.38464951417070       -1.85421130432108        0.67866810705100
H           -5.44067827711502       -0.07964953418860        1.94643344780991
H           -5.24037318178118       -1.47646168073143        3.03342491224267
85
 energy: -113.189635604119 gnorm: 0.042517219238 xtb: 6.7.1 (edcfbbe)
C            1.34858152613046       -4.06520699527498        1.79084477779978
C            1.03464878568634       -3.30323002364162        0.50544656649674
C            0.60166216390004       -4.28086954126948       -0.58016285007141
N            2.10331503362040       -2.35191471905724        0.11869569898003
C            3.36375417523062       -2.92652418087872       -0.40750516822618
C            4.18531479502451       -3.64505724513547        0.68390659006227
C            4.31198310457285       -1.94330921445715       -1.08229888447448
P            1.45724921128536       -0.83247674140330       -0.03045117724122
Se           2.88866717047350        0.81814099975494       -0.51284067567254
S            4.26093674943055        1.42895387336800        1.08214620591762
C            4.43275371898168        3.07247034099805        0.40782244428823
C            5.43467112872753        3.30360544614201       -0.52410661534515
C            5.73320729894397        4.60548640494144       -0.88279938977284
C            5.02012800931209        5.65501442100389       -0.32701504811094
C            3.97256011235940        5.40815746717286        0.54658727317514
C            3.66393687225119        4.11001745826145        0.91527361192381
N            0.63692168496540       -0.39751228377548        1.34588939013346
C            1.40593183568838       -0.13915391804392        2.57113293663173
C           -0.77039026710456       -0.52980466195030        1.54817689057846
C           -1.23615134243509       -0.97732451838885        2.78158374305269
C           -2.58866018667569       -1.11545532368410        3.00584163551519
C           -3.49549784933903       -0.85246221427283        1.99287499695137
C           -3.04762577903277       -0.40372676101059        0.76113228342027
C           -1.67510423975047       -0.18959262594852        0.55436741205486
C           -1.42848703726332        0.54720046193807       -0.67175892558921
C           -0.48468410527558        0.27474495881107       -1.64951001834819
C           -0.58723511990001        0.91309684208816       -2.88531605608890
C           -1.61626187655981        1.79715145742841       -3.13587401476293
C           -2.53706320167944        2.10598958685867       -2.14806981359779
C           -2.42634357956190        1.51020340519703       -0.90229582372319
C           -3.25221301223380        2.14894015672404        0.18081129417605
C           -2.79103190343494        3.59130725588319        0.11499889161200
C           -3.29348444725647        4.20703397706856       -1.19267516886365
C           -3.60780197503273        3.13256346437031       -2.25593466196462
N            0.55824156666818       -0.68113906319533       -1.43237570513597
C            1.07270020529032       -1.29365786256040       -2.66510822500595
C           -4.07238363549172       -0.44301866126170       -0.33987298926588
C           -4.52257836988665       -1.88880419145384       -0.28947079236134
C           -5.36948355111268       -2.06226535008774        0.96640925372370