89
 energy: -133.892979035435 gnorm: 0.000045040460 xtb: 6.7.1 (edcfbbe)
C            0.11332171209107       -3.50821013265110        2.62368991400837
C            1.26884644884091       -2.52212696462645        2.74032714233314
C            2.36342677761447       -2.81421241476644        1.72302811056715
N            0.73638948328643       -1.15300244268438        2.62059853216494
C            0.82176654391074       -0.28689275135336        3.81214875201598
C            0.07576174366196       -0.91145406943995        4.98569722239175
C            2.26452902133349        0.06060057436094        4.16313756797749
P            0.81620642408785       -0.35785933600469        1.18319885186037
Se           2.79999318887746        0.47751380043329        0.38994708149459
S            3.01822153844396       -0.60592337997362       -1.46099628907143
C            2.30118612762773        0.50451073564729       -2.66866313250657
C            1.43923173055963       -0.02092734875258       -3.61669120682931
C            0.96399543680302        0.79889977794696       -4.62582904558701
C            1.34004225861562        2.12992901260067       -4.67670724777897
C            2.18140194422308        2.65231102720672       -3.70778936619249
C            2.67212031271508        1.83888331188848       -2.70421472225392
O           -0.19548924489714        0.82654377366955        1.41698318504005
C           -0.31768081272041        1.70075355439326        0.31033315794404
C            0.33759813391410        2.94756135598596        0.37206089443850
C            1.11748335204138        3.31659957441549        1.56591960167259
C            0.55243124501096        3.24255732519367        2.83610244834424
C            1.29772494613282        3.58348796632098        3.95036069065811
C            2.61227512680723        3.99670626239212        3.81024279342517
C            3.17737118590714        4.08423654750581        2.54859488874386
C            2.43420661644420        3.75097928785609        1.43097881560182
C            0.21567817605637        3.78558528388928       -0.70899785495476
C           -0.51433425908710        3.41039135856968       -1.85285601106910
C           -0.65309296610751        4.29089135371969       -2.94714425320055
C           -1.34826889530290        3.91751543435694       -4.06199511428513
C           -1.89660301496819        2.62939084670751       -4.14791857801213
C           -1.78193590573428        1.75215075824660       -3.10536717023877
C           -1.12985795977833        2.13074425184858       -1.91336875573233
C           -1.04436240212592        1.27756847180380       -0.77394835273216
C           -1.72656395335223       -0.03329718280935       -0.75492835171379
C           -1.03760968943259       -1.20118455661988       -0.51955411083784
C           -1.59454752772490       -2.47470995156245       -0.77857726601947
C           -0.78069688400363       -3.70173177958281       -0.74992658058661
C           -1.29669093043086       -4.87566829389744       -0.20154964822096
C           -0.54819776837436       -6.03756257207791       -0.20147937709618
C            0.72154023320705       -6.04881843108017       -0.75565781585631
C            1.23623358448433       -4.89277688020147       -1.31753299942509
C            0.49121105290993       -3.72759409440813       -1.31790335128457
C           -2.92098173547100       -2.53385253069512       -1.13662911169290
C           -3.72325001142497       -1.38125484894969       -1.20940766466898
C           -5.10568225114569       -1.46116574594606       -1.48171777223507
C           -5.87132076148188       -0.33089674029273       -1.53811862296451
C           -5.28785630620777        0.92534556182856       -1.31483184711774
C           -3.94702701980869        1.03822464974372       -1.06904961452394
C           -3.12475358340842       -0.10737067387287       -1.02733435702626
O            0.30845841726457       -1.17447313113654       -0.06715559703051
H           -0.61264542408088       -3.34204100948336        3.41430142637368
H            0.48272173513047       -4.52708135309648        2.69907425597815
H           -0.38292342310230       -3.39232436071585        1.66555801802983
H            1.70569365402568       -2.60883037900695        3.73814766386120
H            2.73244256444388       -3.82647777924193        1.86984128298390
H            3.20158643189329       -2.12941484224441        1.84926061769436
H            1.98504982467966       -2.74554809076718        0.70457629135000
H            0.30350152770236        0.63794023733895        3.54983331629339
H            0.58259740197676       -1.79065574536111        5.37280330829221
H            0.00886171167323       -0.18157881448545        5.78774139274193
H           -0.93229697550535       -1.18627788735438        4.68779011125660
H            2.74827969163537        0.56477787834257        3.32370334274502
H            2.27992130644457        0.73613501335404        5.01361351078314
H            2.84071011479871       -0.82463175416829        4.42047882701128
H            1.16239132574511       -1.06322365068735       -3.57884834225449
H            0.30581487872168        0.39104870829011       -5.37691410152294
H            0.98099311962575        2.76155136641893       -5.47363234798589
H            2.47462697568763        3.68982823359071       -3.74475294735863
H            3.35181627770381        2.22882612792219       -1.95703541042943
H           -0.48158006418550        2.94751161127683        2.94300072525315
H            0.84751120751984        3.53384677061495        4.93048847060421
H            3.19218386284996        4.25986187414286        4.68129753686272
H            4.19762799045886        4.41677437038920        2.43429744773276
H            2.87143863801709        3.82289223787044        0.44500375068378
H            0.67993399583624        4.75957564241566       -0.67882078889495
H           -0.20267247351826        5.26965795956085       -2.87964953274256
H           -1.46680684046397        4.60281958072790       -4.88706198490182
H           -2.41225094437526        2.33091850039660       -5.04759892164715
H           -2.19732263585544        0.76048676717310       -3.18977963493115
H           -2.27941257209846       -4.86786603040816        0.24666229619901
H           -0.95805447870011       -6.93752642054529        0.23083460340184
H            1.30417679491623       -6.95698982258653       -0.75652825988547
H            2.21936413441259       -4.89702158571254       -1.76362618392524
H            0.89242206780539       -2.83830540735715       -1.78139198410594
H           -3.36199762654179       -3.49064876657683       -1.37126876936707
H           -5.54623455850434       -2.43520538599396       -1.63185249437876
H           -6.92868949447365       -0.39708360955480       -1.74213587037821
H           -5.90734074059091        1.80864554634142       -1.33322163969001
H           -3.51328586221164        2.00871666443729       -0.88369944427463
