85
 energy: -119.837887973618 gnorm: 0.000039824348 xtb: 6.7.1 (edcfbbe)
C            0.14949533233394       -2.38642143751222        2.04470335533226
N            0.28685037427790       -1.11911550026523        1.34406519167040
C            1.24843439735315       -0.18996115722285        1.86272873563306
C            1.31189414318738        0.08915887776332        3.23946298889083
C            2.19186328210872        1.02185927693202        3.70549682678074
C            3.00468995788187        1.75514394236787        2.81590822247995
C            3.85629905329548        2.78243422957126        3.27217474126951
C            4.60997260801981        3.50769167939699        2.39239436073632
C            4.53871226202772        3.23998149878829        1.01693574360144
C            3.73316281006791        2.24152999720165        0.54292957801653
C            2.95559464755234        1.46269619336908        1.42733698346488
C            2.09336402570268        0.42733224661649        0.96927642359712
C            2.11126255615822        0.00073587330094       -0.44085795254968
C            0.97632521238613        0.07460610483315       -1.21897441520872
C            1.03096026270352       -0.23014516254817       -2.59237608167070
C            2.19914790066918       -0.64221550078278       -3.16392068905400
C            3.36335379560054       -0.81289661629973       -2.38807461922597
C            4.56407005746069       -1.28878366345443       -2.95401735427819
C            5.67501369824275       -1.47258475992984       -2.18001012906389
C            5.62411005969768       -1.20099701743217       -0.80466759385392
C            4.47749114414732       -0.72854863675497       -0.22843704828737
C            3.32012820147532       -0.50107802679341       -1.00402721659085
N           -0.25550481223299        0.50384804199601       -0.63699279528631
C           -1.13193877970146        1.33579606991408       -1.45317954221546
P           -0.98107421018485       -0.39526870490204        0.55631398154406
S           -2.02911962833792        1.03214540155080        1.74641706355815
S           -0.57277065894284        2.38953029483471        2.21637176463338
C           -0.72046699832378        3.61245856114938        0.92238372949941
C           -1.94857949730856        4.17123012560316        0.60518842018450
C           -2.01253011567473        5.13419655329641       -0.38602359307436
C           -0.85822538073095        5.54296528777738       -1.03586132416148
C            0.36534378194543        4.98639572087633       -0.69982297405190
C            0.44075527146656        4.01081363381110        0.27939596451976
N           -2.02165718092898       -1.53084236622412       -0.02791881067736
C           -3.38855475051497       -1.76681935822263        0.42992421589005
C           -3.50832706972705       -1.92315423093837        1.95919943338802
C           -4.73011246626591       -1.09549558817420        2.38284656218492
C           -5.49654213848087       -0.83845466751325        1.08624927915713
C           -4.38928800304156       -0.66662505476147        0.05325876463814
C           -1.47066036685598       -2.39141788200490       -1.08503472598553
C           -2.19918887000883       -2.23318384830994       -2.43100724345722
C           -2.13985576821054       -3.62025463429261       -3.06389432771703
C           -2.35793007440321       -4.54739388990008       -1.87301805183227
C           -1.52925642551388       -3.90296648393739       -0.75720730677850
H            1.11281827979265       -2.89612526253749        2.00753270127642
H           -0.59379078485108       -2.99536124813259        1.53800172944358
H           -0.14249941617639       -2.27104216646754        3.09008465742222
H            0.65419526357322       -0.42469681989000        3.92312287998501
H            2.25203631676676        1.23287401776448        4.76186510533491
H            3.89260064867618        2.98970610565544        4.33106932249665
H            5.25751496138302        4.29439610142585        2.74729747868574
H            5.12479709814362        3.83175079316781        0.33040940508038
H            3.67689581847917        2.04692261766188       -0.51758452634214
H            0.14643218343370       -0.12608417848091       -3.19948263418287
H            2.23845738707704       -0.85979444727849       -4.22044047834899
H            4.58378601913645       -1.51080817901270       -4.01057976718867
H            6.59190986399798       -1.83658973266608       -2.61703576118300
H            6.50024500552553       -1.37195413235478       -0.19809369800551
H            4.44960609199047       -0.53564307668850        0.83288458256140
H           -0.53396853991620        2.11165685204064       -1.93006907230957
H           -1.87354241705570        1.81650186204754       -0.81506510250681
H           -1.66764431845412        0.76937167244807       -2.21774641460803
H           -2.83992464021503        3.85329158755141        1.12615058520176
H           -2.96432988428315        5.57362497035422       -0.64091107976815
H           -0.91302629768741        6.30127381641311       -1.80129267880106
H            1.26547249267282        5.30847426250156       -1.20017780524104
H            1.38672984012150        3.56834381671545        0.55235763220755
H           -3.70555325265786       -2.69419828450839       -0.05064541698127
H           -2.60083063046546       -1.55984644832011        2.44611087592996
H           -3.63107105273063       -2.97211412593584        2.22776100842179
H           -4.40805023334819       -0.14595655206139        2.81010393668190
H           -5.33741228632304       -1.61296104025095        3.12168124397643
H           -6.10928552883261       -1.70383377828184        0.83138595730758
H           -6.14330461684787        0.03300831933194        1.15247029416421
H           -4.75007298506006       -0.76247846505636       -0.96969659549585
H           -3.92243301027605        0.31268310736807        0.16591567095119
H           -0.42136915028644       -2.09448588609748       -1.19852956123141
H           -1.73952805712160       -1.47407959122712       -3.06045430906191
H           -3.23716380832336       -1.95066349166601       -2.25744073126860
H           -1.15360875337082       -3.79224542785048       -3.49615916283363
H           -2.88768954824631       -3.75224856280889       -3.84248864136203
H           -2.04486429591348       -5.56893978845550       -2.07502228050437
H           -3.41585940690585       -4.56386062533974       -1.60678348560365
H           -0.51944980640070       -4.31280252766140       -0.76049451558574
H           -1.96393718939065       -4.09299148611195        0.22325811563235
