      -----------------------------------------------------------      
     |                   =====================                   |     
     |                           x T B                           |     
     |                   =====================                   |     
     |                         S. Grimme                         |     
     |          Mulliken Center for Theoretical Chemistry        |     
     |                    University of Bonn                     |     
      -----------------------------------------------------------      

   * xtb version 6.7.1 (edcfbbe) compiled by 'conda@3ef47c1a292c' on 2024-11-25

   xtb is free software: you can redistribute it and/or modify it under
   the terms of the GNU Lesser General Public License as published by
   the Free Software Foundation, either version 3 of the License, or
   (at your option) any later version.
   
   xtb is distributed in the hope that it will be useful,
   but WITHOUT ANY WARRANTY; without even the implied warranty of
   MERCHANTABILITY or FITNESS FOR A PARTICULAR PURPOSE.  See the
   GNU Lesser General Public License for more details.
   
   Cite this work as:
   * C. Bannwarth, E. Caldeweyher, S. Ehlert, A. Hansen, P. Pracht,
     J. Seibert, S. Spicher, S. Grimme, WIREs Comput. Mol. Sci., 2020, 11,
     e01493. DOI: 10.1002/wcms.1493
   
   for GFN2-xTB:
   * C. Bannwarth, S. Ehlert and S. Grimme., J. Chem. Theory Comput., 2019,
     15, 1652-1671. DOI: 10.1021/acs.jctc.8b01176
   for GFN1-xTB:
   * S. Grimme, C. Bannwarth, P. Shushkov, J. Chem. Theory Comput., 2017,
     13, 1989-2009. DOI: 10.1021/acs.jctc.7b00118
   for GFN0-xTB:
   * P. Pracht, E. Caldeweyher, S. Ehlert, S. Grimme, ChemRxiv, 2019, preprint.
     DOI: 10.26434/chemrxiv.8326202.v1
   for GFN-FF:
   * S. Spicher and S. Grimme, Angew. Chem. Int. Ed., 2020, 59, 15665-15673.
     DOI: 10.1002/anie.202004239
   
   for ALPB and GBSA implicit solvation:
   * S. Ehlert, M. Stahn, S. Spicher, S. Grimme, J. Chem. Theory Comput.,
     2021, 17, 4250-4261. DOI: 10.1021/acs.jctc.1c00471
   
   for ddCOSMO and CPCM-X implicit solvation:
   * M. Stahn, S. Ehlert, S. Grimme, J. Phys. Chem. A,
     2023, XX, XXXX-XXXX. DOI: 10.1021/acs.jpca.3c04382
   
   for DFT-D4:
   * E. Caldeweyher, C. Bannwarth and S. Grimme, J. Chem. Phys., 2017,
     147, 034112. DOI: 10.1063/1.4993215
   * E. Caldeweyher, S. Ehlert, A. Hansen, H. Neugebauer, S. Spicher,
     C. Bannwarth and S. Grimme, J. Chem. Phys., 2019, 150, 154122.
     DOI: 10.1063/1.5090222
   * E. Caldeweyher, J.-M. Mewes, S. Ehlert and S. Grimme, Phys. Chem. Chem. Phys.
     2020, 22, 8499-8512. DOI: 10.1039/D0CP00502A
   
   for sTDA-xTB:
   * S. Grimme and C. Bannwarth, J. Chem. Phys., 2016, 145, 054103.
     DOI: 10.1063/1.4959605
   
   in the mass-spec context:
   * V. Asgeirsson, C. Bauer and S. Grimme, Chem. Sci., 2017, 8, 4879.
     DOI: 10.1039/c7sc00601b
   * J. Koopman and S. Grimme, ACS Omega 2019, 4, 12, 15120-15133.
     DOI: 10.1021/acsomega.9b02011
   
   for metadynamics refer to:
   * S. Grimme, J. Chem. Theory Comput., 2019, 155, 2847-2862
     DOI: 10.1021/acs.jctc.9b00143
   
   for SPH calculations refer to:
   * S. Spicher and S. Grimme, J. Chem. Theory Comput., 2021, 17, 1701-1714
     DOI: 10.1021/acs.jctc.0c01306
   
   for ONIOM refer to:
   * C. Plett, A. Katbashev, S. Ehlert, S. Grimme, M. Bursch,
     Phys. Chem. Chem. Phys., 2023, 25, 17860-17868. DOI: 10.1039/D3CP02178E
   
   for DIPRO refer to:
   * J. Kohn, N. Gildemeister, S. Grimme, D. Fazzi, A. Hansen,
     J. Chem. Phys., 2023, just accepted.
   
   for PTB refer to:
   * S. Grimme, M. Mueller, A. Hansen, J. Chem. Phys., 2023, 158, 124111.
     DOI: 10.1063/5.0137838
   
   with help from (in alphabetical order)
   P. Atkinson, C. Bannwarth, F. Bohle, G. Brandenburg, E. Caldeweyher
   M. Checinski, S. Dohm, S. Ehlert, S. Ehrlich, I. Gerasimov, C. Hölzer
   A. Katbashev, J. Kohn, J. Koopman, C. Lavigne, S. Lehtola, F. März, M. Müller,
   F. Musil, H. Neugebauer, J. Pisarek, C. Plett, P. Pracht, F. Pultar,
   J. Seibert, P. Shushkov, S. Spicher, M. Stahn, M. Steiner, T. Strunk,
   J. Stückrath, T. Rose, and J. Unsleber
   
 * started run on 2024/12/16 at 20:18:00.255     
   ID    Z sym.   atoms
    1    6 C      1-3, 5-7, 11-16, 18-24, 28-47, 51-54
    2    7 N      4
    3   15 P      8
    4   34 Se     9
    5   16 S      10
    6    8 O      17, 55
    7    9 F      25-27, 48-50
    8    1 H      56-94

           -------------------------------------------------
          |                Calculation Setup                |
           -------------------------------------------------

          program call               : xtb --gfn2 --opt extreme -P 8 --charge 1 molecule.xyz
          hostname                   : node20
          coordinate file            : molecule.xyz
          omp threads                :                     8


           -------------------------------------------------
          |                 G F N 2 - x T B                 |
           -------------------------------------------------

        Reference                      10.1021/acs.jctc.8b01176
      * Hamiltonian:
        H0-scaling (s, p, d)           1.850000    2.230000    2.230000
        zeta-weighting                 0.500000
      * Dispersion:
        s8                             2.700000
        a1                             0.520000
        a2                             5.000000
        s9                             5.000000
      * Repulsion:
        kExp                           1.500000    1.000000
        rExp                           1.000000
      * Coulomb:
        alpha                          2.000000
        third order                    shell-resolved
        anisotropic                    true
        a3                             3.000000
        a5                             4.000000
        cn-shift                       1.200000
        cn-exp                         4.000000
        max-rad                        5.000000


          ...................................................
          :                      SETUP                      :
          :.................................................:
          :  # basis functions                 277          :
          :  # atomic orbitals                 274          :
          :  # shells                          152          :
          :  # electrons                       286          :
          :  max. iterations                   250          :
          :  Hamiltonian                  GFN2-xTB          :
          :  restarted?                      false          :
          :  GBSA solvation                  false          :
          :  PC potential                    false          :
          :  electronic temp.          300.0000000     K    :
          :  accuracy                    1.0000000          :
          :  -> integral cutoff          0.2500000E+02      :
          :  -> integral neglect         0.1000000E-07      :
          :  -> SCF convergence          0.1000000E-05 Eh   :
          :  -> wf. convergence          0.1000000E-03 e    :
          :  Broyden damping             0.4000000          :
          :  net charge                          1          :
          :  unpaired electrons                  0          :
          ...................................................

 iter      E             dE          RMSdq      gap      omega  full diag
   1   -161.7943993 -0.161794E+03  0.496E+00    2.58       0.0  T
   2   -162.0308362 -0.236437E+00  0.283E+00    3.33       1.0  T
   3   -162.0441878 -0.133516E-01  0.125E+00    3.39       1.0  T
   4   -162.0596851 -0.154973E-01  0.477E-01    3.15       1.0  T
   5   -162.0626616 -0.297657E-02  0.242E-01    3.29       1.0  T
   6   -162.0646339 -0.197229E-02  0.111E-01    3.28       1.0  T
   7   -162.0647231 -0.891477E-04  0.616E-02    3.28       1.0  T
   8   -162.0647528 -0.297535E-04  0.438E-02    3.28       1.0  T
   9   -162.0647538 -0.987287E-06  0.239E-02    3.28       1.0  T
  10   -162.0647741 -0.202508E-04  0.126E-02    3.27       1.0  T
  11   -162.0647756 -0.150468E-05  0.646E-03    3.28       1.6  T
  12   -162.0647766 -0.994443E-06  0.247E-03    3.28       4.2  T
  13   -162.0647768 -0.235119E-06  0.121E-03    3.28       8.5  T
  14   -162.0647768 -0.290922E-07  0.439E-04    3.28      23.5  T
  15   -162.0647768 -0.213177E-08  0.207E-04    3.28      49.9  T

   *** convergence criteria satisfied after 15 iterations ***

         #    Occupation            Energy/Eh            Energy/eV
      -------------------------------------------------------------
         1        2.0000           -0.9376307             -25.5142
       ...           ...                  ...                  ...
       137        2.0000           -0.5194290             -14.1344
       138        2.0000           -0.5182709             -14.1029
       139        2.0000           -0.5140884             -13.9891
       140        2.0000           -0.5067286             -13.7888
       141        2.0000           -0.5019438             -13.6586
       142        2.0000           -0.5011761             -13.6377
       143        2.0000           -0.4903433             -13.3429 (HOMO)
       144                         -0.3699755             -10.0675 (LUMO)
       145                         -0.3658751              -9.9560
       146                         -0.3579300              -9.7398
       147                         -0.3556427              -9.6775
       148                         -0.3506300              -9.5411
       ...                                ...                  ...
       274                          3.0478508              82.9362
      -------------------------------------------------------------
                  HL-Gap            0.1203678 Eh            3.2754 eV
             Fermi-level           -0.4301594 Eh          -11.7052 eV

 SCC (total)                   0 d,  0 h,  0 min,  2.584 sec
 SCC setup                      ...        0 min,  0.000 sec (  0.018%)
 Dispersion                     ...        0 min,  0.003 sec (  0.124%)
 classical contributions        ...        0 min,  0.000 sec (  0.006%)
 integral evaluation            ...        0 min,  0.013 sec (  0.503%)
 iterations                     ...        0 min,  2.426 sec ( 93.852%)
 molecular gradient             ...        0 min,  0.121 sec (  4.684%)
 printout                       ...        0 min,  0.021 sec (  0.810%)

         :::::::::::::::::::::::::::::::::::::::::::::::::::::
         ::                     SUMMARY                     ::
         :::::::::::::::::::::::::::::::::::::::::::::::::::::
         :: total energy            -159.857812886403 Eh    ::
         :: gradient norm              0.657102313914 Eh/a0 ::
         :: HOMO-LUMO gap              3.275374707572 eV    ::
         ::.................................................::
         :: SCC energy              -162.057691510851 Eh    ::
         :: -> isotropic ES            0.201152838551 Eh    ::
         :: -> anisotropic ES         -0.008314396160 Eh    ::
         :: -> anisotropic XC          0.035289311181 Eh    ::
         :: -> dispersion             -0.143879744141 Eh    ::
         :: repulsion energy           2.199878624448 Eh    ::
         :: add. restraining           0.000000000000 Eh    ::
         :: total charge               1.000000000000 e     ::
         :::::::::::::::::::::::::::::::::::::::::::::::::::::

      ----------------------------------------------------------- 
     |                   =====================                   |
     |                        A N C O P T                        |
     |                   =====================                   |
     |               Approximate Normal Coordinate               |
     |                Rational Function Optimizer                |
      ----------------------------------------------------------- 
      ----------------------------------------------------------- 
     |                   =====================                   |
     |                        A N C O P T                        |
     |                   =====================                   |
     |               Approximate Normal Coordinate               |
     |                Rational Function Optimizer                |
      ----------------------------------------------------------- 

          ...................................................
          :                      SETUP                      :
          :.................................................:
          :   optimization level           extreme          :
          :   max. optcycles                  1880          :
          :   ANC micro-cycles                  20          :
          :   degrees of freedom               276          :
          :.................................................:
          :   RF solver                   davidson          :
          :   write xtbopt.log                true          :
          :   linear?                        false          :
          :   energy convergence         0.5000000E-07 Eh   :
          :   grad. convergence          0.5000000E-04 Eh/α :
          :   maxmium RF displ.          1.0000000          :
          :   Hlow (freq-cutoff)         0.1000000E-01      :
          :   Hmax (freq-cutoff)         5.0000000          :
          :   S6 in model hess.         20.0000000          :
          ...................................................

generating ANC from exact Hessian ...
Using Lindh-Hessian (1995)
 Shifting diagonal of input Hessian by    1.0137402680318227E-002
 Lowest  eigenvalues of input Hessian
    0.010000    0.000000    0.000000    0.000000    0.000000    0.000000
    0.000000    0.010206    0.010234    0.010265    0.010412    0.010511
    0.010655    0.010722    0.010770    0.010836    0.011086    0.011176
 Highest eigenvalues
    2.037263    2.055261    2.096120    2.110604    2.163678    2.168901


........................................................................
.............................. CYCLE    1 ..............................
........................................................................

 iter      E             dE          RMSdq      gap      omega  full diag
   1   -162.0647768 -0.162065E+03  0.806E-05    3.28       0.0  T
   2   -162.0647768 -0.141114E-09  0.552E-05    3.28     187.0  T
   3   -162.0647768 -0.178915E-09  0.302E-05    3.28     341.0  T
     SCC iter.                  ...        0 min,  0.323 sec
     gradient                   ...        0 min,  0.121 sec
 * total energy  :  -159.8578129 Eh     change       -0.9823680E-09 Eh
   gradient norm :     0.6571002 Eh/α   predicted     0.0000000E+00 (-100.00%)
   displ. norm   :     0.5762139 α      lambda       -0.3503361E+00
   maximum displ.:     0.1863594 α      in ANC's #202, #222, #224, ...

........................................................................
.............................. CYCLE    2 ..............................
........................................................................

 iter      E             dE          RMSdq      gap      omega  full diag
   1   -162.1656938 -0.162166E+03  0.818E-01    2.97       0.0  T
   2   -162.1685502 -0.285639E-02  0.481E-01    3.18       1.0  T
   3   -162.1686038 -0.536191E-04  0.170E-01    3.31       1.0  T
   4   -162.1686676 -0.637815E-04  0.874E-02    3.31       1.0  T
   5   -162.1689564 -0.288777E-03  0.402E-02    3.32       1.0  T
   6   -162.1690157 -0.592874E-04  0.148E-02    3.31       1.0  T
   7   -162.1690218 -0.612356E-05  0.821E-03    3.31       1.3  T
   8   -162.1690244 -0.259731E-05  0.343E-03    3.31       3.0  T
   9   -162.1690244 -0.537619E-07  0.151E-03    3.31       6.8  T
  10   -162.1690245 -0.454860E-07  0.719E-04    3.31      14.3  T
  11   -162.1690245 -0.125412E-07  0.372E-04    3.31      27.7  T
     SCC iter.                  ...        0 min,  1.554 sec
     gradient                   ...        0 min,  0.122 sec
 * total energy  :  -160.0439091 Eh     change       -0.1860962E+00 Eh
   gradient norm :     0.1952096 Eh/α   predicted    -0.2333299E+00 (  25.38%)
   displ. norm   :     0.5580363 α      lambda       -0.7321317E-01
   maximum displ.:     0.1557951 α      in ANC's #16, #1, #131, ...

........................................................................
.............................. CYCLE    3 ..............................
........................................................................

 iter      E             dE          RMSdq      gap      omega  full diag
   1   -162.2263480 -0.162226E+03  0.354E-01    3.17       0.0  T
   2   -162.2268157 -0.467750E-03  0.209E-01    3.24       1.0  T
   3   -162.2268065  0.923831E-05  0.870E-02    3.26       1.0  T
   4   -162.2268480 -0.414762E-04  0.557E-02    3.28       1.0  T
   5   -162.2269185 -0.704902E-04  0.327E-02    3.27       1.0  T
   6   -162.2269372 -0.187771E-04  0.208E-02    3.28       1.0  T
   7   -162.2269437 -0.644530E-05  0.112E-02    3.27       1.0  T
   8   -162.2269449 -0.116719E-05  0.602E-03    3.28       1.7  T
   9   -162.2269459 -0.105086E-05  0.304E-03    3.28       3.4  T
  10   -162.2269460 -0.685336E-07  0.145E-03    3.28       7.1  T
  11   -162.2269460 -0.244318E-07  0.530E-04    3.28      19.4  T
  12   -162.2269460 -0.379916E-08  0.291E-04    3.28      35.4  T
     SCC iter.                  ...        0 min,  1.928 sec
     gradient                   ...        0 min,  0.121 sec
 * total energy  :  -160.0976841 Eh     change       -0.5377498E-01 Eh
   gradient norm :     0.0895983 Eh/α   predicted    -0.4800518E-01 ( -10.73%)
   displ. norm   :     0.5522647 α      lambda       -0.3259676E-01
   maximum displ.:     0.1836888 α      in ANC's #16, #1, #7, ...

........................................................................
.............................. CYCLE    4 ..............................
........................................................................

 iter      E             dE          RMSdq      gap      omega  full diag
   1   -162.2425113 -0.162243E+03  0.302E-01    3.10       0.0  T
   2   -162.2427806 -0.269268E-03  0.168E-01    3.15       1.0  T
   3   -162.2426897  0.908595E-04  0.655E-02    3.15       1.0  T
   4   -162.2428008 -0.111117E-03  0.402E-02    3.15       1.0  T
   5   -162.2428572 -0.563699E-04  0.243E-02    3.15       1.0  T
   6   -162.2428613 -0.407605E-05  0.153E-02    3.15       1.0  T
   7   -162.2428648 -0.352141E-05  0.818E-03    3.15       1.3  T
   8   -162.2428659 -0.105053E-05  0.429E-03    3.15       2.4  T
   9   -162.2428662 -0.378143E-06  0.238E-03    3.15       4.3  T
  10   -162.2428663 -0.419860E-07  0.103E-03    3.15      10.0  T
  11   -162.2428663 -0.117455E-07  0.419E-04    3.15      24.6  T
  12   -162.2428663 -0.384375E-08  0.187E-04    3.15      55.1  T
     SCC iter.                  ...        0 min,  1.730 sec
     gradient                   ...        0 min,  0.120 sec
 * total energy  :  -160.1200276 Eh     change       -0.2234353E-01 Eh
   gradient norm :     0.0329299 Eh/α   predicted    -0.2126908E-01 (  -4.81%)
   displ. norm   :     0.6553765 α      lambda       -0.1368567E-01
   maximum displ.:     0.2895477 α      in ANC's #16, #1, #7, ...

........................................................................
.............................. CYCLE    5 ..............................
........................................................................

 iter      E             dE          RMSdq      gap      omega  full diag
   1   -162.2366357 -0.162237E+03  0.184E-01    2.95       0.0  T
   2   -162.2367307 -0.950119E-04  0.108E-01    2.96       1.0  T
   3   -162.2366986  0.321011E-04  0.434E-02    2.96       1.0  T
   4   -162.2367164 -0.178451E-04  0.254E-02    2.96       1.0  T
   5   -162.2367568 -0.403620E-04  0.120E-02    2.96       1.0  T
   6   -162.2367573 -0.527926E-06  0.765E-03    2.96       1.3  T
   7   -162.2367580 -0.710418E-06  0.512E-03    2.96       2.0  T
   8   -162.2367583 -0.262267E-06  0.240E-03    2.96       4.3  T
   9   -162.2367585 -0.180765E-06  0.970E-04    2.96      10.6  T
  10   -162.2367585 -0.552458E-08  0.592E-04    2.96      17.4  T
     SCC iter.                  ...        0 min,  1.587 sec
     gradient                   ...        0 min,  0.120 sec
 * total energy  :  -160.1306245 Eh     change       -0.1059688E-01 Eh
   gradient norm :     0.0223287 Eh/α   predicted    -0.9781994E-02 (  -7.69%)
   displ. norm   :     0.7070656 α      lambda       -0.9199647E-02
   maximum displ.:     0.2653522 α      in ANC's #16, #1, #7, ...

........................................................................
.............................. CYCLE    6 ..............................
........................................................................

 iter      E             dE          RMSdq      gap      omega  full diag
   1   -162.2336141 -0.162234E+03  0.173E-01    2.82       0.0  T
   2   -162.2336579 -0.438592E-04  0.953E-02    2.84       1.0  T
   3   -162.2336174  0.405296E-04  0.328E-02    2.83       1.0  T
   4   -162.2336584 -0.409605E-04  0.164E-02    2.84       1.0  T
   5   -162.2336728 -0.144610E-04  0.740E-03    2.84       1.4  T
   6   -162.2336736 -0.824309E-06  0.447E-03    2.84       2.3  T
   7   -162.2336738 -0.151799E-06  0.342E-03    2.84       3.0  T
   8   -162.2336739 -0.145073E-06  0.144E-03    2.84       7.2  T
   9   -162.2336740 -0.371861E-07  0.740E-04    2.84      13.9  T
  10   -162.2336740 -0.782748E-08  0.420E-04    2.84      24.6  T
     SCC iter.                  ...        0 min,  1.516 sec
     gradient                   ...        0 min,  0.123 sec
 * total energy  :  -160.1382090 Eh     change       -0.7584477E-02 Eh
   gradient norm :     0.0211886 Eh/α   predicted    -0.6899504E-02 (  -9.03%)
   displ. norm   :     0.7529201 α      lambda       -0.7230092E-02
   maximum displ.:     0.2912322 α      in ANC's #1, #16, #7, ...

........................................................................
.............................. CYCLE    7 ..............................
........................................................................

 iter      E             dE          RMSdq      gap      omega  full diag
   1   -162.2349308 -0.162235E+03  0.147E-01    2.73       0.0  T
   2   -162.2349617 -0.309698E-04  0.818E-02    2.74       1.0  T
   3   -162.2349458  0.158874E-04  0.231E-02    2.74       1.0  T
   4   -162.2349593 -0.134145E-04  0.120E-02    2.74       1.0  T
   5   -162.2349686 -0.936917E-05  0.431E-03    2.74       2.4  T
   6   -162.2349690 -0.342529E-06  0.245E-03    2.74       4.2  T
   7   -162.2349691 -0.121585E-06  0.171E-03    2.74       6.0  T
   8   -162.2349691 -0.190631E-07  0.977E-04    2.74      10.6  T
   9   -162.2349691 -0.171713E-07  0.483E-04    2.74      21.3  T
     SCC iter.                  ...        0 min,  1.197 sec
     gradient                   ...        0 min,  0.120 sec
 * total energy  :  -160.1443375 Eh     change       -0.6128496E-02 Eh
   gradient norm :     0.0169585 Eh/α   predicted    -0.5664395E-02 (  -7.57%)
   displ. norm   :     0.7731633 α      lambda       -0.5811352E-02
   maximum displ.:     0.2961454 α      in ANC's #19, #1, #7, ...

........................................................................
.............................. CYCLE    8 ..............................
........................................................................

 iter      E             dE          RMSdq      gap      omega  full diag
   1   -162.2404108 -0.162240E+03  0.130E-01    2.69       0.0  T
   2   -162.2404340 -0.232009E-04  0.733E-02    2.69       1.0  T
   3   -162.2404202  0.137618E-04  0.193E-02    2.69       1.0  T
   4   -162.2404381 -0.178539E-04  0.745E-03    2.69       1.4  T
   5   -162.2404391 -0.105146E-05  0.263E-03    2.69       3.9  T
   6   -162.2404393 -0.232841E-06  0.118E-03    2.69       8.8  T
   7   -162.2404394 -0.200628E-07  0.673E-04    2.69      15.3  T
   8   -162.2404394 -0.594315E-08  0.471E-04    2.69      21.9  T
     SCC iter.                  ...        0 min,  1.163 sec
     gradient                   ...        0 min,  0.121 sec
 * total energy  :  -160.1493230 Eh     change       -0.4985530E-02 Eh
   gradient norm :     0.0139916 Eh/α   predicted    -0.4642653E-02 (  -6.88%)
   displ. norm   :     0.7783578 α      lambda       -0.4678221E-02
   maximum displ.:     0.3180898 α      in ANC's #19, #1, #7, ...

........................................................................
.............................. CYCLE    9 ..............................
........................................................................

 iter      E             dE          RMSdq      gap      omega  full diag
   1   -162.2468799 -0.162247E+03  0.120E-01    2.69       0.0  T
   2   -162.2469068 -0.268283E-04  0.694E-02    2.68       1.0  T
   3   -162.2468921  0.146875E-04  0.212E-02    2.69       1.0  T
   4   -162.2469119 -0.198019E-04  0.675E-03    2.68       1.5  T
   5   -162.2469125 -0.638844E-06  0.311E-03    2.69       3.3  T
   6   -162.2469129 -0.396453E-06  0.855E-04    2.68      12.1  T
   7   -162.2469129 -0.238327E-07  0.502E-04    2.68      20.6  T
     SCC iter.                  ...        0 min,  0.840 sec
     gradient                   ...        0 min,  0.120 sec
 * total energy  :  -160.1533357 Eh     change       -0.4012659E-02 Eh
   gradient norm :     0.0131463 Eh/α   predicted    -0.3756254E-02 (  -6.39%)
   displ. norm   :     0.7781063 α      lambda       -0.3753040E-02
   maximum displ.:     0.3249372 α      in ANC's #19, #1, #7, ...

........................................................................
.............................. CYCLE   10 ..............................
........................................................................

 iter      E             dE          RMSdq      gap      omega  full diag
   1   -162.2522896 -0.162252E+03  0.122E-01    2.73       0.0  T
   2   -162.2523173 -0.277883E-04  0.690E-02    2.72       1.0  T
   3   -162.2523124  0.489225E-05  0.184E-02    2.72       1.0  T
   4   -162.2523200 -0.753385E-05  0.796E-03    2.72       1.3  T
   5   -162.2523214 -0.141533E-05  0.379E-03    2.72       2.7  T
   6   -162.2523219 -0.469246E-06  0.138E-03    2.72       7.5  T
   7   -162.2523219 -0.375626E-07  0.954E-04    2.72      10.8  T
   8   -162.2523219  0.622720E-09  0.665E-04    2.72      15.5  T
     SCC iter.                  ...        0 min,  1.259 sec
     gradient                   ...        0 min,  0.121 sec
 * total energy  :  -160.1565778 Eh     change       -0.3242138E-02 Eh
   gradient norm :     0.0129881 Eh/α   predicted    -0.3012673E-02 (  -7.08%)
   displ. norm   :     0.7795113 α      lambda       -0.3145898E-02
   maximum displ.:     0.3425594 α      in ANC's #1, #19, #7, ...

........................................................................
.............................. CYCLE   11 ..............................
........................................................................

 iter      E             dE          RMSdq      gap      omega  full diag
   1   -162.2568443 -0.162257E+03  0.131E-01    2.80       0.0  T
   2   -162.2568742 -0.299161E-04  0.717E-02    2.79       1.0  T
   3   -162.2568729  0.125702E-05  0.185E-02    2.79       1.0  T
   4   -162.2568761 -0.315959E-05  0.873E-03    2.78       1.2  T
   5   -162.2568777 -0.159186E-05  0.434E-03    2.78       2.4  T
   6   -162.2568784 -0.682054E-06  0.185E-03    2.78       5.6  T
   7   -162.2568784 -0.606486E-07  0.129E-03    2.78       8.0  T
   8   -162.2568784 -0.384458E-08  0.725E-04    2.78      14.2  T
   9   -162.2568784 -0.908253E-08  0.360E-04    2.78      28.6  T
     SCC iter.                  ...        0 min,  1.220 sec
     gradient                   ...        0 min,  0.125 sec
 * total energy  :  -160.1593213 Eh     change       -0.2743498E-02 Eh
   gradient norm :     0.0117928 Eh/α   predicted    -0.2528762E-02 (  -7.83%)
   displ. norm   :     0.7846672 α      lambda       -0.2756992E-02
   maximum displ.:     0.3419768 α      in ANC's #1, #19, #7, ...

........................................................................
.............................. CYCLE   12 ..............................
........................................................................

 iter      E             dE          RMSdq      gap      omega  full diag
   1   -162.2608792 -0.162261E+03  0.145E-01    2.88       0.0  T
   2   -162.2609116 -0.323935E-04  0.767E-02    2.86       1.0  T
   3   -162.2609109  0.747811E-06  0.204E-02    2.86       1.0  T
   4   -162.2609133 -0.237349E-05  0.954E-03    2.86       1.1  T
   5   -162.2609159 -0.264692E-05  0.481E-03    2.86       2.1  T
   6   -162.2609166 -0.679157E-06  0.210E-03    2.86       4.9  T
   7   -162.2609167 -0.895003E-07  0.145E-03    2.86       7.1  T
   8   -162.2609167 -0.566004E-08  0.833E-04    2.86      12.4  T
   9   -162.2609167 -0.128820E-07  0.441E-04    2.86      23.4  T
     SCC iter.                  ...        0 min,  1.281 sec
     gradient                   ...        0 min,  0.121 sec
 * total energy  :  -160.1617330 Eh     change       -0.2411714E-02 Eh
   gradient norm :     0.0092328 Eh/α   predicted    -0.2227244E-02 (  -7.65%)
   displ. norm   :     0.7962909 α      lambda       -0.2450581E-02
   maximum displ.:     0.3578641 α      in ANC's #1, #11, #7, ...

........................................................................
.............................. CYCLE   13 ..............................
........................................................................

 iter      E             dE          RMSdq      gap      omega  full diag
   1   -162.2629859 -0.162263E+03  0.156E-01    2.94       0.0  T
   2   -162.2630175 -0.315823E-04  0.812E-02    2.93       1.0  T
   3   -162.2630154  0.206396E-05  0.221E-02    2.92       1.0  T
   4   -162.2630183 -0.289909E-05  0.103E-02    2.92       1.0  T
   5   -162.2630224 -0.413310E-05  0.454E-03    2.92       2.3  T
   6   -162.2630230 -0.548889E-06  0.197E-03    2.92       5.2  T
   7   -162.2630231 -0.839707E-07  0.131E-03    2.92       7.9  T
   8   -162.2630231 -0.957854E-08  0.794E-04    2.92      13.0  T
   9   -162.2630231 -0.121244E-07  0.416E-04    2.92      24.8  T
     SCC iter.                  ...        0 min,  1.436 sec
     gradient                   ...        0 min,  0.126 sec
 * total energy  :  -160.1638504 Eh     change       -0.2117405E-02 Eh
   gradient norm :     0.0091106 Eh/α   predicted    -0.2002228E-02 (  -5.44%)
   displ. norm   :     0.8011169 α      lambda       -0.2260539E-02
   maximum displ.:     0.3354261 α      in ANC's #1, #11, #10, ...

........................................................................
.............................. CYCLE   14 ..............................
........................................................................

 iter      E             dE          RMSdq      gap      omega  full diag
   1   -162.2673948 -0.162267E+03  0.161E-01    2.94       0.0  T
   2   -162.2674230 -0.282279E-04  0.828E-02    2.93       1.0  T
   3   -162.2674186  0.442475E-05  0.230E-02    2.93       1.0  T
   4   -162.2674237 -0.511436E-05  0.107E-02    2.93       1.0  T
   5   -162.2674290 -0.526565E-05  0.426E-03    2.93       2.4  T
   6   -162.2674294 -0.396803E-06  0.191E-03    2.93       5.4  T
   7   -162.2674295 -0.130712E-06  0.118E-03    2.93       8.7  T
   8   -162.2674295 -0.865674E-08  0.750E-04    2.93      13.7  T
   9   -162.2674296 -0.110974E-07  0.387E-04    2.93      26.7  T
     SCC iter.                  ...        0 min,  1.303 sec
     gradient                   ...        0 min,  0.122 sec
 * total energy  :  -160.1656505 Eh     change       -0.1800126E-02 Eh
   gradient norm :     0.0118450 Eh/α   predicted    -0.1855672E-02 (   3.09%)
   displ. norm   :     0.7847207 α      lambda       -0.1976116E-02
   maximum displ.:     0.3177173 α      in ANC's #11, #1, #10, ...

........................................................................
.............................. CYCLE   15 ..............................
........................................................................

 iter      E             dE          RMSdq      gap      omega  full diag
   1   -162.2640011 -0.162264E+03  0.148E-01    2.90       0.0  T
   2   -162.2640247 -0.236264E-04  0.762E-02    2.89       1.0  T
   3   -162.2640206  0.409255E-05  0.216E-02    2.89       1.0  T
   4   -162.2640249 -0.426786E-05  0.963E-03    2.89       1.1  T
   5   -162.2640288 -0.393889E-05  0.335E-03    2.89       3.1  T
   6   -162.2640296 -0.751479E-06  0.119E-03    2.89       8.7  T
   7   -162.2640296 -0.409017E-07  0.647E-04    2.89      15.9  T
   8   -162.2640296 -0.119242E-07  0.328E-04    2.89      31.4  T
     SCC iter.                  ...        0 min,  1.320 sec
     gradient                   ...        0 min,  0.117 sec
 * total energy  :  -160.1672190 Eh     change       -0.1568409E-02 Eh
   gradient norm :     0.0116741 Eh/α   predicted    -0.1596497E-02 (   1.79%)
   displ. norm   :     0.7336612 α      lambda       -0.1608094E-02
   maximum displ.:     0.3251928 α      in ANC's #11, #1, #10, ...

........................................................................
.............................. CYCLE   16 ..............................
........................................................................

 iter      E             dE          RMSdq      gap      omega  full diag
   1   -162.2691868 -0.162269E+03  0.130E-01    2.86       0.0  T
   2   -162.2691993 -0.124545E-04  0.669E-02    2.86       1.0  T
   3   -162.2691971  0.215221E-05  0.182E-02    2.85       1.0  T
   4   -162.2691993 -0.223249E-05  0.826E-03    2.85       1.2  T
   5   -162.2692019 -0.254281E-05  0.265E-03    2.85       3.9  T
   6   -162.2692025 -0.601406E-06  0.944E-04    2.85      10.9  T
   7   -162.2692025 -0.175017E-07  0.514E-04    2.85      20.1  T
     SCC iter.                  ...        0 min,  0.993 sec
     gradient                   ...        0 min,  0.121 sec
 * total energy  :  -160.1685458 Eh     change       -0.1326882E-02 Eh
   gradient norm :     0.0117352 Eh/α   predicted    -0.1236837E-02 (  -6.79%)
   displ. norm   :     0.7569501 α      lambda       -0.1658126E-02
   maximum displ.:     0.3371349 α      in ANC's #11, #10, #1, ...

........................................................................
.............................. CYCLE   17 ..............................
........................................................................

 iter      E             dE          RMSdq      gap      omega  full diag
   1   -162.2704307 -0.162270E+03  0.122E-01    2.83       0.0  T
   2   -162.2704426 -0.119402E-04  0.624E-02    2.82       1.0  T
   3   -162.2704392  0.347044E-05  0.174E-02    2.82       1.0  T
   4   -162.2704429 -0.370186E-05  0.865E-03    2.82       1.2  T
   5   -162.2704454 -0.255347E-05  0.256E-03    2.82       4.0  T
   6   -162.2704461 -0.661004E-06  0.758E-04    2.82      13.6  T
   7   -162.2704461 -0.809905E-08  0.454E-04    2.82      22.7  T
     SCC iter.                  ...        0 min,  1.079 sec
     gradient                   ...        0 min,  0.121 sec
 * total energy  :  -160.1698805 Eh     change       -0.1334621E-02 Eh
   gradient norm :     0.0101991 Eh/α   predicted    -0.1304101E-02 (  -2.29%)
   displ. norm   :     0.7287266 α      lambda       -0.1493104E-02
   maximum displ.:     0.3339421 α      in ANC's #11, #10, #8, ...

........................................................................
.............................. CYCLE   18 ..............................
........................................................................

 iter      E             dE          RMSdq      gap      omega  full diag
   1   -162.2754382 -0.162275E+03  0.122E-01    2.81       0.0  T
   2   -162.2754514 -0.132334E-04  0.613E-02    2.81       1.0  T
   3   -162.2754480  0.342340E-05  0.162E-02    2.81       1.0  T
   4   -162.2754519 -0.387554E-05  0.884E-03    2.81       1.2  T
   5   -162.2754545 -0.260645E-05  0.209E-03    2.81       4.9  T
   6   -162.2754548 -0.358739E-06  0.701E-04    2.81      14.7  T
   7   -162.2754549 -0.125337E-07  0.403E-04    2.81      25.6  T
     SCC iter.                  ...        0 min,  1.115 sec
     gradient                   ...        0 min,  0.122 sec
 * total energy  :  -160.1710944 Eh     change       -0.1213970E-02 Eh
   gradient norm :     0.0103666 Eh/α   predicted    -0.1143008E-02 (  -5.85%)
   displ. norm   :     0.7865080 α      lambda       -0.1549413E-02
   maximum displ.:     0.3506223 α      in ANC's #10, #11, #1, ...

........................................................................
.............................. CYCLE   19 ..............................
........................................................................

 iter      E             dE          RMSdq      gap      omega  full diag
   1   -162.2721863 -0.162272E+03  0.140E-01    2.80       0.0  T
   2   -162.2722079 -0.216242E-04  0.704E-02    2.80       1.0  T
   3   -162.2722044  0.344723E-05  0.178E-02    2.80       1.0  T
   4   -162.2722087 -0.422567E-05  0.972E-03    2.80       1.1  T
   5   -162.2722116 -0.288153E-05  0.286E-03    2.80       3.6  T
   6   -162.2722122 -0.661166E-06  0.867E-04    2.80      11.9  T
   7   -162.2722122 -0.250991E-07  0.517E-04    2.80      20.0  T
     SCC iter.                  ...        0 min,  1.037 sec
     gradient                   ...        0 min,  0.122 sec
 * total energy  :  -160.1720530 Eh     change       -0.9585359E-03 Eh
   gradient norm :     0.0169940 Eh/α   predicted    -0.1253941E-02 (  30.82%)
   displ. norm   :     0.6164319 α      lambda       -0.1431280E-02
   maximum displ.:     0.2984782 α      in ANC's #10, #11, #8, ...

........................................................................
.............................. CYCLE   20 ..............................
........................................................................

 iter      E             dE          RMSdq      gap      omega  full diag
   1   -162.2766333 -0.162277E+03  0.112E-01    2.80       0.0  T
   2   -162.2766440 -0.107165E-04  0.552E-02    2.80       1.0  T
   3   -162.2766430  0.103333E-05  0.129E-02    2.80       1.0  T
   4   -162.2766419  0.113040E-05  0.734E-03    2.80       1.4  T
   5   -162.2766460 -0.413039E-05  0.174E-03    2.80       5.9  T
   6   -162.2766462 -0.219375E-06  0.697E-04    2.80      14.8  T
   7   -162.2766462 -0.112327E-07  0.428E-04    2.80      24.1  T
     SCC iter.                  ...        0 min,  1.019 sec
     gradient                   ...        0 min,  0.125 sec
 * total energy  :  -160.1730882 Eh     change       -0.1035257E-02 Eh
   gradient norm :     0.0126794 Eh/α   predicted    -0.9875776E-03 (  -4.61%)
   displ. norm   :     0.6828210 α      lambda       -0.1291861E-02
   maximum displ.:     0.3220915 α      in ANC's #10, #11, #8, ...
 * RMSD in coord.:     1.1618749 α      energy gain  -0.3152753E+00 Eh

generating ANC from exact Hessian ...
Using Lindh-Hessian (1995)
 Shifting diagonal of input Hessian by    1.0916608287737890E-002
 Lowest  eigenvalues of input Hessian
    0.010000    0.010857    0.000000    0.000000    0.000000    0.000000
    0.000000    0.000000    0.010954    0.011012    0.011025    0.011184
    0.011279    0.011359    0.011437    0.011556    0.011602    0.011718
 Highest eigenvalues
    2.014328    2.014974    2.064408    2.083163    2.104371    2.320569


........................................................................
.............................. CYCLE   21 ..............................
........................................................................

 iter      E             dE          RMSdq      gap      omega  full diag
   1   -162.2695519 -0.162270E+03  0.110E-01    2.78       0.0  T
   2   -162.2695619 -0.100117E-04  0.571E-02    2.78       1.0  T
   3   -162.2695539  0.803325E-05  0.155E-02    2.78       1.0  T
   4   -162.2695606 -0.673484E-05  0.856E-03    2.78       1.2  T
   5   -162.2695652 -0.461180E-05  0.159E-03    2.78       6.5  T
   6   -162.2695654 -0.172385E-06  0.691E-04    2.78      14.9  T
   7   -162.2695654 -0.198767E-07  0.381E-04    2.78      27.1  T
     SCC iter.                  ...        0 min,  1.066 sec
     gradient                   ...        0 min,  0.121 sec
 * total energy  :  -160.1739442 Eh     change       -0.8559638E-03 Eh
   gradient norm :     0.0129968 Eh/α   predicted     0.0000000E+00 (-100.00%)
   displ. norm   :     0.1424013 α      lambda       -0.6515875E-03
   maximum displ.:     0.0617320 α      in ANC's #9, #35, #6, ...

........................................................................
.............................. CYCLE   22 ..............................
........................................................................

 iter      E             dE          RMSdq      gap      omega  full diag
   1   -162.2769612 -0.162277E+03  0.410E-02    2.81       0.0  T
   2   -162.2769641 -0.287210E-05  0.227E-02    2.81       1.0  T
   3   -162.2769636  0.524798E-06  0.603E-03    2.81       1.7  T
   4   -162.2769643 -0.724141E-06  0.319E-03    2.81       3.2  T
   5   -162.2769646 -0.285065E-06  0.159E-03    2.81       6.5  T
   6   -162.2769646 -0.477911E-07  0.788E-04    2.81      13.1  T
   7   -162.2769646 -0.735952E-08  0.585E-04    2.81      17.6  T
     SCC iter.                  ...        0 min,  0.901 sec
     gradient                   ...        0 min,  0.124 sec
 * total energy  :  -160.1744299 Eh     change       -0.4857234E-03 Eh
   gradient norm :     0.0049603 Eh/α   predicted    -0.3324017E-03 ( -31.57%)
   displ. norm   :     0.3017937 α      lambda       -0.6515344E-03
   maximum displ.:     0.1424582 α      in ANC's #9, #35, #3, ...

........................................................................
.............................. CYCLE   23 ..............................
........................................................................

 iter      E             dE          RMSdq      gap      omega  full diag
   1   -162.2835552 -0.162284E+03  0.593E-02    2.81       0.0  T
   2   -162.2835574 -0.221531E-05  0.339E-02    2.81       1.0  T
   3   -162.2835557  0.173040E-05  0.667E-03    2.81       1.5  T
   4   -162.2835577 -0.202055E-05  0.294E-03    2.81       3.5  T
   5   -162.2835580 -0.359607E-06  0.104E-03    2.81       9.9  T
   6   -162.2835581 -0.316423E-07  0.533E-04    2.81      19.3  T
   7   -162.2835581 -0.436532E-08  0.359E-04    2.81      28.8  T
     SCC iter.                  ...        0 min,  1.030 sec
     gradient                   ...        0 min,  0.125 sec
 * total energy  :  -160.1749210 Eh     change       -0.4910702E-03 Eh
   gradient norm :     0.0059824 Eh/α   predicted    -0.3554614E-03 ( -27.61%)
   displ. norm   :     0.4768868 α      lambda       -0.7148047E-03
   maximum displ.:     0.2380684 α      in ANC's #9, #35, #3, ...

........................................................................
.............................. CYCLE   24 ..............................
........................................................................

 iter      E             dE          RMSdq      gap      omega  full diag
   1   -162.2852434 -0.162285E+03  0.855E-02    2.84       0.0  T
   2   -162.2852474 -0.404849E-05  0.493E-02    2.84       1.0  T
   3   -162.2852451  0.228451E-05  0.875E-03    2.84       1.2  T
   4   -162.2852480 -0.284251E-05  0.435E-03    2.84       2.4  T
   5   -162.2852484 -0.473858E-06  0.207E-03    2.84       5.0  T
   6   -162.2852485 -0.108363E-06  0.107E-03    2.84       9.7  T
   7   -162.2852486 -0.183726E-07  0.816E-04    2.84      12.6  T
   8   -162.2852486 -0.237119E-08  0.371E-04    2.84      27.8  T
     SCC iter.                  ...        0 min,  1.185 sec
     gradient                   ...        0 min,  0.121 sec
 * total energy  :  -160.1755081 Eh     change       -0.5871039E-03 Eh
   gradient norm :     0.0108271 Eh/α   predicted    -0.4390768E-03 ( -25.21%)
   displ. norm   :     0.6251536 α      lambda       -0.8886777E-03
   maximum displ.:     0.2982259 α      in ANC's #9, #35, #3, ...

........................................................................
.............................. CYCLE   25 ..............................
........................................................................

 iter      E             dE          RMSdq      gap      omega  full diag
   1   -162.2810798 -0.162281E+03  0.120E-01    2.85       0.0  T
   2   -162.2810865 -0.675468E-05  0.650E-02    2.85       1.0  T
   3   -162.2810845  0.199986E-05  0.118E-02    2.86       1.0  T
   4   -162.2810859 -0.140727E-05  0.636E-03    2.86       1.6  T
   5   -162.2810883 -0.236525E-05  0.180E-03    2.86       5.7  T
   6   -162.2810884 -0.109319E-06  0.914E-04    2.86      11.3  T
   7   -162.2810884 -0.125837E-07  0.616E-04    2.86      16.7  T
     SCC iter.                  ...        0 min,  0.937 sec
     gradient                   ...        0 min,  0.120 sec
 * total energy  :  -160.1761949 Eh     change       -0.6867952E-03 Eh
   gradient norm :     0.0138305 Eh/α   predicted    -0.6180045E-03 ( -10.02%)
   displ. norm   :     0.5626408 α      lambda       -0.9445355E-03
   maximum displ.:     0.2879884 α      in ANC's #9, #4, #3, ...

........................................................................
.............................. CYCLE   26 ..............................
........................................................................

 iter      E             dE          RMSdq      gap      omega  full diag
   1   -162.2768349 -0.162277E+03  0.100E-01    2.86       0.0  T
   2   -162.2768427 -0.778283E-05  0.555E-02    2.87       1.0  T
   3   -162.2768392  0.345644E-05  0.111E-02    2.87       1.0  T
   4   -162.2768427 -0.350584E-05  0.543E-03    2.87       1.9  T
   5   -162.2768443 -0.155088E-05  0.242E-03    2.87       4.3  T
   6   -162.2768445 -0.203537E-06  0.882E-04    2.87      11.7  T
   7   -162.2768445 -0.209986E-07  0.517E-04    2.87      19.9  T
     SCC iter.                  ...        0 min,  1.062 sec
     gradient                   ...        0 min,  0.121 sec
 * total energy  :  -160.1769284 Eh     change       -0.7335547E-03 Eh
   gradient norm :     0.0105430 Eh/α   predicted    -0.6217713E-03 ( -15.24%)
   displ. norm   :     0.5534411 α      lambda       -0.9002729E-03
   maximum displ.:     0.2685683 α      in ANC's #9, #3, #6, ...

........................................................................
.............................. CYCLE   27 ..............................
........................................................................

 iter      E             dE          RMSdq      gap      omega  full diag
   1   -162.2761944 -0.162276E+03  0.105E-01    2.86       0.0  T
   2   -162.2762041 -0.970386E-05  0.534E-02    2.86       1.0  T
   3   -162.2762028  0.128539E-05  0.122E-02    2.86       1.0  T
   4   -162.2762041 -0.132121E-05  0.645E-03    2.86       1.6  T
   5   -162.2762060 -0.182535E-05  0.228E-03    2.86       4.5  T
   6   -162.2762061 -0.149103E-06  0.918E-04    2.86      11.2  T
   7   -162.2762061 -0.368337E-07  0.582E-04    2.86      17.7  T
     SCC iter.                  ...        0 min,  1.117 sec
     gradient                   ...        0 min,  0.134 sec
 * total energy  :  -160.1775885 Eh     change       -0.6600332E-03 Eh
   gradient norm :     0.0079694 Eh/α   predicted    -0.5880122E-03 ( -10.91%)
   displ. norm   :     0.7139058 α      lambda       -0.8185232E-03
   maximum displ.:     0.3396367 α      in ANC's #9, #3, #6, ...

........................................................................
.............................. CYCLE   28 ..............................
........................................................................

 iter      E             dE          RMSdq      gap      omega  full diag
   1   -162.2723343 -0.162272E+03  0.103E-01    2.87       0.0  T
   2   -162.2723406 -0.633525E-05  0.570E-02    2.88       1.0  T
   3   -162.2723385  0.215643E-05  0.109E-02    2.88       1.0  T
   4   -162.2723405 -0.204177E-05  0.565E-03    2.88       1.8  T
   5   -162.2723421 -0.160551E-05  0.200E-03    2.88       5.2  T
   6   -162.2723423 -0.239568E-06  0.776E-04    2.88      13.3  T
   7   -162.2723424 -0.142367E-07  0.488E-04    2.88      21.1  T
     SCC iter.                  ...        0 min,  1.027 sec
     gradient                   ...        0 min,  0.130 sec
 * total energy  :  -160.1782443 Eh     change       -0.6557859E-03 Eh
   gradient norm :     0.0113365 Eh/α   predicted    -0.6178469E-03 (  -5.79%)
   displ. norm   :     0.6223205 α      lambda       -0.9866488E-03
   maximum displ.:     0.2616941 α      in ANC's #9, #3, #6, ...

........................................................................
.............................. CYCLE   29 ..............................
........................................................................

 iter      E             dE          RMSdq      gap      omega  full diag
   1   -162.2811011 -0.162281E+03  0.847E-02    2.90       0.0  T
   2   -162.2811098 -0.869276E-05  0.464E-02    2.90       1.0  T
   3   -162.2811061  0.366132E-05  0.129E-02    2.90       1.0  T
   4   -162.2811101 -0.401790E-05  0.615E-03    2.90       1.7  T
   5   -162.2811117 -0.153963E-05  0.246E-03    2.90       4.2  T
   6   -162.2811119 -0.244169E-06  0.124E-03    2.90       8.3  T
   7   -162.2811119 -0.181841E-07  0.795E-04    2.90      13.0  T
   8   -162.2811120 -0.108527E-07  0.331E-04    2.90      31.2  T
     SCC iter.                  ...        0 min,  1.215 sec
     gradient                   ...        0 min,  0.121 sec
 * total energy  :  -160.1789319 Eh     change       -0.6876516E-03 Eh
   gradient norm :     0.0098159 Eh/α   predicted    -0.6843878E-03 (  -0.47%)
   displ. norm   :     0.7121818 α      lambda       -0.8698467E-03
   maximum displ.:     0.2986564 α      in ANC's #9, #3, #6, ...

........................................................................
.............................. CYCLE   30 ..............................
........................................................................

 iter      E             dE          RMSdq      gap      omega  full diag
   1   -162.2801238 -0.162280E+03  0.128E-01    2.88       0.0  T
   2   -162.2801379 -0.140441E-04  0.631E-02    2.87       1.0  T
   3   -162.2801366  0.126310E-05  0.152E-02    2.87       1.0  T
   4   -162.2801355  0.111076E-05  0.857E-03    2.87       1.2  T
   5   -162.2801407 -0.520376E-05  0.247E-03    2.87       4.2  T
   6   -162.2801409 -0.234189E-06  0.970E-04    2.87      10.6  T
   7   -162.2801409 -0.291970E-07  0.500E-04    2.87      20.6  T
     SCC iter.                  ...        0 min,  1.004 sec
     gradient                   ...        0 min,  0.121 sec
 * total energy  :  -160.1796307 Eh     change       -0.6988026E-03 Eh
   gradient norm :     0.0086271 Eh/α   predicted    -0.6555178E-03 (  -6.19%)
   displ. norm   :     0.6503721 α      lambda       -0.7575294E-03
   maximum displ.:     0.2833508 α      in ANC's #3, #6, #9, ...

........................................................................
.............................. CYCLE   31 ..............................
........................................................................

 iter      E             dE          RMSdq      gap      omega  full diag
   1   -162.2850007 -0.162285E+03  0.111E-01    2.86       0.0  T
   2   -162.2850111 -0.103861E-04  0.553E-02    2.85       1.0  T
   3   -162.2850094  0.178123E-05  0.141E-02    2.85       1.0  T
   4   -162.2850084  0.953325E-06  0.824E-03    2.85       1.3  T
   5   -162.2850134 -0.503813E-05  0.231E-03    2.85       4.5  T
   6   -162.2850135 -0.105962E-06  0.108E-03    2.85       9.6  T
   7   -162.2850136 -0.282162E-07  0.725E-04    2.85      14.2  T
   8   -162.2850136 -0.239677E-08  0.450E-04    2.85      22.9  T
     SCC iter.                  ...        0 min,  1.000 sec
     gradient                   ...        0 min,  0.121 sec
 * total energy  :  -160.1802553 Eh     change       -0.6246333E-03 Eh
   gradient norm :     0.0076028 Eh/α   predicted    -0.5389791E-03 ( -13.71%)
   displ. norm   :     0.7500244 α      lambda       -0.7150250E-03
   maximum displ.:     0.3340713 α      in ANC's #3, #6, #9, ...

........................................................................
.............................. CYCLE   32 ..............................
........................................................................

 iter      E             dE          RMSdq      gap      omega  full diag
   1   -162.2837857 -0.162284E+03  0.108E-01    2.85       0.0  T
   2   -162.2837927 -0.696656E-05  0.573E-02    2.85       1.0  T
   3   -162.2837913  0.144184E-05  0.126E-02    2.85       1.0  T
   4   -162.2837912  0.100893E-06  0.703E-03    2.85       1.5  T
   5   -162.2837944 -0.320429E-05  0.209E-03    2.85       4.9  T
   6   -162.2837946 -0.225563E-06  0.102E-03    2.85      10.1  T
   7   -162.2837946 -0.120794E-07  0.627E-04    2.85      16.4  T
   8   -162.2837946 -0.546856E-08  0.334E-04    2.85      30.9  T
     SCC iter.                  ...        0 min,  1.262 sec
     gradient                   ...        0 min,  0.121 sec
 * total energy  :  -160.1808768 Eh     change       -0.6214302E-03 Eh
   gradient norm :     0.0070734 Eh/α   predicted    -0.5586311E-03 ( -10.11%)
   displ. norm   :     0.6747404 α      lambda       -0.7249181E-03
   maximum displ.:     0.3454219 α      in ANC's #3, #6, #4, ...

........................................................................
.............................. CYCLE   33 ..............................
........................................................................

 iter      E             dE          RMSdq      gap      omega  full diag
   1   -162.2925987 -0.162293E+03  0.977E-02    2.87       0.0  T
   2   -162.2926070 -0.828264E-05  0.502E-02    2.87       1.0  T
   3   -162.2926057  0.129212E-05  0.121E-02    2.87       1.0  T
   4   -162.2926065 -0.767473E-06  0.668E-03    2.87       1.5  T
   5   -162.2926088 -0.227025E-05  0.205E-03    2.87       5.0  T
   6   -162.2926089 -0.149071E-06  0.118E-03    2.87       8.7  T
   7   -162.2926089 -0.232232E-07  0.755E-04    2.87      13.7  T
   8   -162.2926089 -0.966210E-08  0.426E-04    2.87      24.2  T
     SCC iter.                  ...        0 min,  1.013 sec
     gradient                   ...        0 min,  0.120 sec
 * total energy  :  -160.1813729 Eh     change       -0.4961766E-03 Eh
   gradient norm :     0.0080894 Eh/α   predicted    -0.5274832E-03 (   6.31%)
   displ. norm   :     0.7408081 α      lambda       -0.6225141E-03
   maximum displ.:     0.3480850 α      in ANC's #3, #4, #6, ...

........................................................................
.............................. CYCLE   34 ..............................
........................................................................

 iter      E             dE          RMSdq      gap      omega  full diag
   1   -162.2836793 -0.162284E+03  0.112E-01    2.89       0.0  T
   2   -162.2836871 -0.781075E-05  0.594E-02    2.89       1.0  T
   3   -162.2836846  0.250599E-05  0.123E-02    2.89       1.0  T
   4   -162.2836855 -0.879126E-06  0.686E-03    2.89       1.5  T
   5   -162.2836889 -0.340491E-05  0.199E-03    2.89       5.2  T
   6   -162.2836892 -0.248340E-06  0.752E-04    2.89      13.7  T
   7   -162.2836892 -0.153303E-07  0.431E-04    2.89      23.9  T
     SCC iter.                  ...        0 min,  1.111 sec
     gradient                   ...        0 min,  0.126 sec
 * total energy  :  -160.1818178 Eh     change       -0.4449043E-03 Eh
   gradient norm :     0.0072844 Eh/α   predicted    -0.4820747E-03 (   8.35%)
   displ. norm   :     0.5040788 α      lambda       -0.3635717E-03
   maximum displ.:     0.2682315 α      in ANC's #3, #4, #6, ...

........................................................................
.............................. CYCLE   35 ..............................
........................................................................

 iter      E             dE          RMSdq      gap      omega  full diag
   1   -162.2843386 -0.162284E+03  0.767E-02    2.89       0.0  T
   2   -162.2843422 -0.360993E-05  0.395E-02    2.90       1.0  T
   3   -162.2843409  0.125302E-05  0.883E-03    2.90       1.2  T
   4   -162.2843409  0.596935E-07  0.531E-03    2.90       1.9  T
   5   -162.2843432 -0.231816E-05  0.134E-03    2.90       7.7  T
   6   -162.2843432 -0.472701E-07  0.728E-04    2.90      14.2  T
   7   -162.2843432 -0.388613E-08  0.439E-04    2.90      23.5  T
     SCC iter.                  ...        0 min,  0.989 sec
     gradient                   ...        0 min,  0.124 sec
 * total energy  :  -160.1821252 Eh     change       -0.3073038E-03 Eh
   gradient norm :     0.0061881 Eh/α   predicted    -0.2279780E-03 ( -25.81%)
   displ. norm   :     0.5011403 α      lambda       -0.4614256E-03
   maximum displ.:     0.2948927 α      in ANC's #3, #4, #6, ...

........................................................................
.............................. CYCLE   36 ..............................
........................................................................

 iter      E             dE          RMSdq      gap      omega  full diag
   1   -162.2916902 -0.162292E+03  0.725E-02    2.93       0.0  T
   2   -162.2916947 -0.452835E-05  0.387E-02    2.94       1.0  T
   3   -162.2916914  0.331231E-05  0.101E-02    2.94       1.0  T
   4   -162.2916945 -0.307126E-05  0.514E-03    2.94       2.0  T
   5   -162.2916960 -0.150289E-05  0.168E-03    2.94       6.1  T
   6   -162.2916961 -0.130879E-06  0.775E-04    2.94      13.3  T
   7   -162.2916961 -0.863395E-08  0.486E-04    2.94      21.2  T
     SCC iter.                  ...        0 min,  1.082 sec
     gradient                   ...        0 min,  0.119 sec
 * total energy  :  -160.1824693 Eh     change       -0.3441593E-03 Eh
   gradient norm :     0.0051238 Eh/α   predicted    -0.2886566E-03 ( -16.13%)
   displ. norm   :     0.5344520 α      lambda       -0.3371848E-03
   maximum displ.:     0.3035661 α      in ANC's #3, #4, #6, ...

........................................................................
.............................. CYCLE   37 ..............................
........................................................................

 iter      E             dE          RMSdq      gap      omega  full diag
   1   -162.2917661 -0.162292E+03  0.839E-02    2.94       0.0  T
   2   -162.2917701 -0.395723E-05  0.453E-02    2.94       1.0  T
   3   -162.2917667  0.335351E-05  0.100E-02    2.94       1.0  T
   4   -162.2917699 -0.320637E-05  0.550E-03    2.94       1.9  T
   5   -162.2917715 -0.153850E-05  0.169E-03    2.94       6.1  T
   6   -162.2917716 -0.977303E-07  0.946E-04    2.94      10.9  T
   7   -162.2917716 -0.888116E-08  0.592E-04    2.94      17.4  T
     SCC iter.                  ...        0 min,  1.071 sec
     gradient                   ...        0 min,  0.120 sec
 * total energy  :  -160.1827265 Eh     change       -0.2571921E-03 Eh
   gradient norm :     0.0055815 Eh/α   predicted    -0.2167508E-03 ( -15.72%)
   displ. norm   :     0.4735326 α      lambda       -0.2838016E-03
   maximum displ.:     0.2672719 α      in ANC's #3, #4, #6, ...

........................................................................
.............................. CYCLE   38 ..............................
........................................................................

 iter      E             dE          RMSdq      gap      omega  full diag
   1   -162.2929559 -0.162293E+03  0.698E-02    2.95       0.0  T
   2   -162.2929588 -0.285223E-05  0.388E-02    2.95       1.0  T
   3   -162.2929564  0.242851E-05  0.833E-03    2.95       1.2  T
   4   -162.2929583 -0.192582E-05  0.449E-03    2.96       2.3  T
   5   -162.2929598 -0.145798E-05  0.142E-03    2.95       7.3  T
   6   -162.2929598 -0.471613E-07  0.829E-04    2.95      12.4  T
   7   -162.2929598 -0.143377E-07  0.579E-04    2.95      17.8  T
     SCC iter.                  ...        0 min,  0.813 sec
     gradient                   ...        0 min,  0.124 sec
 * total energy  :  -160.1829528 Eh     change       -0.2262858E-03 Eh
   gradient norm :     0.0058188 Eh/α   predicted    -0.1737220E-03 ( -23.23%)
   displ. norm   :     0.5035660 α      lambda       -0.3359430E-03
   maximum displ.:     0.2552662 α      in ANC's #3, #4, #6, ...

........................................................................
.............................. CYCLE   39 ..............................
........................................................................

 iter      E             dE          RMSdq      gap      omega  full diag
   1   -162.2922747 -0.162292E+03  0.794E-02    2.95       0.0  T
   2   -162.2922784 -0.367175E-05  0.444E-02    2.95       1.0  T
   3   -162.2922748  0.362005E-05  0.939E-03    2.95       1.1  T
   4   -162.2922781 -0.335466E-05  0.496E-03    2.95       2.1  T
   5   -162.2922797 -0.162215E-05  0.138E-03    2.95       7.5  T
   6   -162.2922798 -0.559330E-07  0.759E-04    2.95      13.6  T
   7   -162.2922798 -0.147077E-07  0.539E-04    2.95      19.1  T
     SCC iter.                  ...        0 min,  1.003 sec
     gradient                   ...        0 min,  0.120 sec
 * total energy  :  -160.1832246 Eh     change       -0.2718455E-03 Eh
   gradient norm :     0.0062838 Eh/α   predicted    -0.2105687E-03 ( -22.54%)
   displ. norm   :     0.5463748 α      lambda       -0.4068200E-03
   maximum displ.:     0.2221150 α      in ANC's #3, #4, #2, ...

........................................................................
.............................. CYCLE   40 ..............................
........................................................................

 iter      E             dE          RMSdq      gap      omega  full diag
   1   -162.2918303 -0.162292E+03  0.859E-02    2.94       0.0  T
   2   -162.2918357 -0.538459E-05  0.480E-02    2.94       1.0  T
   3   -162.2918313  0.440940E-05  0.110E-02    2.94       1.0  T
   4   -162.2918355 -0.416032E-05  0.536E-03    2.94       1.9  T
   5   -162.2918374 -0.189449E-05  0.179E-03    2.94       5.8  T
   6   -162.2918375 -0.124460E-06  0.936E-04    2.94      11.0  T
   7   -162.2918375 -0.186422E-07  0.688E-04    2.94      15.0  T
     SCC iter.                  ...        0 min,  1.004 sec
     gradient                   ...        0 min,  0.124 sec
 * total energy  :  -160.1835394 Eh     change       -0.3147624E-03 Eh
   gradient norm :     0.0062911 Eh/α   predicted    -0.2641342E-03 ( -16.08%)
   displ. norm   :     0.5537363 α      lambda       -0.3838249E-03
   maximum displ.:     0.2157242 α      in ANC's #4, #2, #3, ...

........................................................................
.............................. CYCLE   41 ..............................
........................................................................

 iter      E             dE          RMSdq      gap      omega  full diag
   1   -162.2861873 -0.162286E+03  0.910E-02    2.93       0.0  T
   2   -162.2861938 -0.658568E-05  0.518E-02    2.94       1.0  T
   3   -162.2861873  0.653224E-05  0.124E-02    2.93       1.0  T
   4   -162.2861937 -0.642228E-05  0.534E-03    2.94       1.9  T
   5   -162.2861959 -0.215616E-05  0.183E-03    2.94       5.6  T
   6   -162.2861960 -0.129303E-06  0.903E-04    2.94      11.4  T
   7   -162.2861961 -0.342285E-07  0.554E-04    2.94      18.6  T
     SCC iter.                  ...        0 min,  0.965 sec
     gradient                   ...        0 min,  0.120 sec
 * total energy  :  -160.1838145 Eh     change       -0.2751359E-03 Eh
   gradient norm :     0.0073231 Eh/α   predicted    -0.2507619E-03 (  -8.86%)
   displ. norm   :     0.4787044 α      lambda       -0.3452983E-03
   maximum displ.:     0.1818849 α      in ANC's #2, #9, #13, ...

........................................................................
.............................. CYCLE   42 ..............................
........................................................................

 iter      E             dE          RMSdq      gap      omega  full diag
   1   -162.2882773 -0.162288E+03  0.682E-02    2.94       0.0  T
   2   -162.2882800 -0.278784E-05  0.396E-02    2.94       1.0  T
   3   -162.2882742  0.584929E-05  0.926E-03    2.94       1.1  T
   4   -162.2882809 -0.669722E-05  0.273E-03    2.94       3.8  T
   5   -162.2882812 -0.347429E-06  0.124E-03    2.94       8.3  T
   6   -162.2882813 -0.741501E-07  0.520E-04    2.94      19.8  T
   7   -162.2882813 -0.140305E-07  0.266E-04    2.94      38.7  T
     SCC iter.                  ...        0 min,  0.928 sec
     gradient                   ...        0 min,  0.126 sec
 * total energy  :  -160.1840466 Eh     change       -0.2320946E-03 Eh
   gradient norm :     0.0070087 Eh/α   predicted    -0.2122136E-03 (  -8.57%)
   displ. norm   :     0.4941216 α      lambda       -0.2794745E-03
   maximum displ.:     0.1871260 α      in ANC's #3, #4, #2, ...
 * RMSD in coord.:     0.9840723 α      energy gain  -0.1095841E-01 Eh

generating ANC from exact Hessian ...
Using Lindh-Hessian (1995)
 Shifting diagonal of input Hessian by    1.0112211524913288E-002
 Lowest  eigenvalues of input Hessian
    0.010000    0.000000    0.000000    0.000000    0.000000    0.000000
    0.000000    0.010200    0.010244    0.010277    0.010423    0.010457
    0.010611    0.010705    0.010826    0.010868    0.010939    0.011165
 Highest eigenvalues
    2.011837    2.016964    2.052802    2.086966    2.095955    2.276642


........................................................................
.............................. CYCLE   43 ..............................
........................................................................

 iter      E             dE          RMSdq      gap      omega  full diag
   1   -162.2866724 -0.162287E+03  0.792E-02    2.94       0.0  T
   2   -162.2866753 -0.288019E-05  0.457E-02    2.94       1.0  T
   3   -162.2866689  0.638837E-05  0.935E-03    2.94       1.1  T
   4   -162.2866761 -0.718172E-05  0.328E-03    2.94       3.1  T
   5   -162.2866765 -0.417816E-06  0.150E-03    2.94       6.9  T
   6   -162.2866766 -0.119421E-06  0.511E-04    2.94      20.2  T
   7   -162.2866766 -0.138980E-07  0.268E-04    2.94      38.5  T
     SCC iter.                  ...        0 min,  0.804 sec
     gradient                   ...        0 min,  0.120 sec
 * total energy  :  -160.1842345 Eh     change       -0.1878256E-03 Eh
   gradient norm :     0.0072680 Eh/α   predicted     0.0000000E+00 (-100.00%)
   displ. norm   :     0.0919112 α      lambda       -0.1691594E-03
   maximum displ.:     0.0387648 α      in ANC's #6, #5, #9, ...

........................................................................
.............................. CYCLE   44 ..............................
........................................................................

 iter      E             dE          RMSdq      gap      omega  full diag
   1   -162.2903161 -0.162290E+03  0.203E-02    2.95       0.0  T
   2   -162.2903168 -0.616695E-06  0.105E-02    2.95       1.0  T
   3   -162.2903162  0.510874E-06  0.358E-03    2.95       2.9  T
   4   -162.2903169 -0.670966E-06  0.141E-03    2.95       7.3  T
   5   -162.2903170 -0.375959E-07  0.513E-04    2.95      20.1  T
   6   -162.2903170 -0.154230E-07  0.190E-04    2.95      54.3  T
     SCC iter.                  ...        0 min,  0.727 sec
     gradient                   ...        0 min,  0.119 sec
 * total energy  :  -160.1843786 Eh     change       -0.1441516E-03 Eh
   gradient norm :     0.0037811 Eh/α   predicted    -0.9077211E-04 ( -37.03%)
   displ. norm   :     0.2531702 α      lambda       -0.2950287E-03
   maximum displ.:     0.1085272 α      in ANC's #6, #5, #2, ...

........................................................................
.............................. CYCLE   45 ..............................
........................................................................

 iter      E             dE          RMSdq      gap      omega  full diag
   1   -162.2946465 -0.162295E+03  0.545E-02    2.96       0.0  T
   2   -162.2946505 -0.399799E-05  0.267E-02    2.96       1.0  T
   3   -162.2946488  0.173342E-05  0.836E-03    2.96       1.2  T
   4   -162.2946511 -0.231721E-05  0.413E-03    2.96       2.5  T
   5   -162.2946516 -0.556616E-06  0.162E-03    2.96       6.4  T
   6   -162.2946517 -0.638342E-07  0.783E-04    2.96      13.2  T
   7   -162.2946517 -0.329783E-07  0.386E-04    2.96      26.7  T
     SCC iter.                  ...        0 min,  1.007 sec
     gradient                   ...        0 min,  0.126 sec
 * total energy  :  -160.1845853 Eh     change       -0.2066640E-03 Eh
   gradient norm :     0.0044715 Eh/α   predicted    -0.1569757E-03 ( -24.04%)
   displ. norm   :     0.2971042 α      lambda       -0.2224189E-03
   maximum displ.:     0.1242580 α      in ANC's #6, #5, #10, ...

........................................................................
.............................. CYCLE   46 ..............................
........................................................................

 iter      E             dE          RMSdq      gap      omega  full diag
   1   -162.2957854 -0.162296E+03  0.469E-02    2.96       0.0  T
   2   -162.2957879 -0.241338E-05  0.250E-02    2.96       1.0  T
   3   -162.2957864  0.141857E-05  0.696E-03    2.96       1.5  T
   4   -162.2957881 -0.169930E-05  0.309E-03    2.96       3.3  T
   5   -162.2957885 -0.355160E-06  0.119E-03    2.96       8.6  T
   6   -162.2957886 -0.649731E-07  0.471E-04    2.96      21.9  T
   7   -162.2957886 -0.923339E-08  0.264E-04    2.96      39.1  T
     SCC iter.                  ...        0 min,  0.990 sec
     gradient                   ...        0 min,  0.120 sec
 * total energy  :  -160.1847512 Eh     change       -0.1658892E-03 Eh
   gradient norm :     0.0063879 Eh/α   predicted    -0.1210273E-03 ( -27.04%)
   displ. norm   :     0.4236574 α      lambda       -0.2775443E-03
   maximum displ.:     0.1777147 α      in ANC's #6, #5, #10, ...

........................................................................
.............................. CYCLE   47 ..............................
........................................................................

 iter      E             dE          RMSdq      gap      omega  full diag
   1   -162.2940962 -0.162294E+03  0.776E-02    2.97       0.0  T
   2   -162.2941019 -0.579308E-05  0.388E-02    2.96       1.0  T
   3   -162.2941007  0.123542E-05  0.103E-02    2.96       1.0  T
   4   -162.2941019 -0.120085E-05  0.556E-03    2.96       1.9  T
   5   -162.2941034 -0.144392E-05  0.209E-03    2.96       4.9  T
   6   -162.2941034 -0.784955E-07  0.933E-04    2.96      11.1  T
   7   -162.2941035 -0.429388E-07  0.483E-04    2.96      21.4  T
     SCC iter.                  ...        0 min,  1.063 sec
     gradient                   ...        0 min,  0.119 sec
 * total energy  :  -160.1849540 Eh     change       -0.2028152E-03 Eh
   gradient norm :     0.0067667 Eh/α   predicted    -0.1637230E-03 ( -19.27%)
   displ. norm   :     0.4102998 α      lambda       -0.2454695E-03
   maximum displ.:     0.1709036 α      in ANC's #6, #5, #1, ...

........................................................................
.............................. CYCLE   48 ..............................
........................................................................

 iter      E             dE          RMSdq      gap      omega  full diag
   1   -162.2913435 -0.162291E+03  0.543E-02    2.96       0.0  T
   2   -162.2913453 -0.180741E-05  0.310E-02    2.96       1.0  T
   3   -162.2913437  0.164508E-05  0.606E-03    2.96       1.7  T
   4   -162.2913457 -0.204641E-05  0.255E-03    2.96       4.0  T
   5   -162.2913459 -0.205816E-06  0.102E-03    2.96      10.1  T
   6   -162.2913460 -0.555155E-07  0.501E-04    2.96      20.6  T
   7   -162.2913460 -0.812480E-08  0.323E-04    2.96      31.9  T
     SCC iter.                  ...        0 min,  0.969 sec
     gradient                   ...        0 min,  0.128 sec
 * total energy  :  -160.1851395 Eh     change       -0.1855395E-03 Eh
   gradient norm :     0.0057559 Eh/α   predicted    -0.1433970E-03 ( -22.71%)
   displ. norm   :     0.4024236 α      lambda       -0.2343222E-03
   maximum displ.:     0.1804733 α      in ANC's #5, #6, #1, ...

........................................................................
.............................. CYCLE   49 ..............................
........................................................................

 iter      E             dE          RMSdq      gap      omega  full diag
   1   -162.2896262 -0.162290E+03  0.518E-02    2.96       0.0  T
   2   -162.2896277 -0.148279E-05  0.299E-02    2.96       1.0  T
   3   -162.2896257  0.197949E-05  0.590E-03    2.96       1.7  T
   4   -162.2896282 -0.249888E-05  0.210E-03    2.96       4.9  T
   5   -162.2896283 -0.875531E-07  0.752E-04    2.96      13.7  T
   6   -162.2896283 -0.467150E-07  0.293E-04    2.96      35.2  T
     SCC iter.                  ...        0 min,  0.718 sec
     gradient                   ...        0 min,  0.122 sec
 * total energy  :  -160.1853223 Eh     change       -0.1827939E-03 Eh
   gradient norm :     0.0056178 Eh/α   predicted    -0.1361455E-03 ( -25.52%)
   displ. norm   :     0.4061005 α      lambda       -0.2501139E-03
   maximum displ.:     0.1853255 α      in ANC's #5, #6, #1, ...

........................................................................
.............................. CYCLE   50 ..............................
........................................................................

 iter      E             dE          RMSdq      gap      omega  full diag
   1   -162.2894122 -0.162289E+03  0.530E-02    2.95       0.0  T
   2   -162.2894153 -0.310216E-05  0.301E-02    2.95       1.0  T
   3   -162.2894129  0.240957E-05  0.828E-03    2.95       1.2  T
   4   -162.2894155 -0.260452E-05  0.347E-03    2.95       3.0  T
   5   -162.2894162 -0.766704E-06  0.153E-03    2.95       6.7  T
   6   -162.2894163 -0.690493E-07  0.881E-04    2.95      11.7  T
   7   -162.2894163 -0.200984E-07  0.603E-04    2.95      17.1  T
     SCC iter.                  ...        0 min,  0.970 sec
     gradient                   ...        0 min,  0.119 sec
 * total energy  :  -160.1855219 Eh     change       -0.1995592E-03 Eh
   gradient norm :     0.0060626 Eh/α   predicted    -0.1456815E-03 ( -27.00%)
   displ. norm   :     0.4935743 α      lambda       -0.2898609E-03
   maximum displ.:     0.2403133 α      in ANC's #5, #6, #1, ...

........................................................................
.............................. CYCLE   51 ..............................
........................................................................

 iter      E             dE          RMSdq      gap      omega  full diag
   1   -162.2899162 -0.162290E+03  0.629E-02    2.95       0.0  T
   2   -162.2899192 -0.302047E-05  0.351E-02    2.95       1.0  T
   3   -162.2899154  0.380740E-05  0.888E-03    2.95       1.2  T
   4   -162.2899199 -0.445392E-05  0.359E-03    2.95       2.9  T
   5   -162.2899205 -0.659052E-06  0.113E-03    2.95       9.1  T
   6   -162.2899206 -0.815035E-07  0.495E-04    2.95      20.8  T
   7   -162.2899206 -0.133796E-07  0.205E-04    2.95      50.3  T
     SCC iter.                  ...        0 min,  0.999 sec
     gradient                   ...        0 min,  0.119 sec
 * total energy  :  -160.1857581 Eh     change       -0.2362536E-03 Eh
   gradient norm :     0.0063990 Eh/α   predicted    -0.1802407E-03 ( -23.71%)
   displ. norm   :     0.5432656 α      lambda       -0.3151836E-03
   maximum displ.:     0.2613910 α      in ANC's #5, #6, #1, ...

........................................................................
.............................. CYCLE   52 ..............................
........................................................................

 iter      E             dE          RMSdq      gap      omega  full diag
   1   -162.2908091 -0.162291E+03  0.723E-02    2.95       0.0  T
   2   -162.2908129 -0.385136E-05  0.395E-02    2.95       1.0  T
   3   -162.2908102  0.270757E-05  0.948E-03    2.95       1.1  T
   4   -162.2908128 -0.255582E-05  0.498E-03    2.95       2.1  T
   5   -162.2908143 -0.155521E-05  0.182E-03    2.95       5.7  T
   6   -162.2908144 -0.932922E-07  0.103E-03    2.95      10.1  T
   7   -162.2908144 -0.193425E-07  0.729E-04    2.95      14.1  T
   8   -162.2908144 -0.437288E-08  0.385E-04    2.95      26.8  T
     SCC iter.                  ...        0 min,  1.053 sec
     gradient                   ...        0 min,  0.119 sec
 * total energy  :  -160.1860183 Eh     change       -0.2601697E-03 Eh
   gradient norm :     0.0060292 Eh/α   predicted    -0.2041124E-03 ( -21.55%)
   displ. norm   :     0.5824776 α      lambda       -0.3255595E-03
   maximum displ.:     0.2867759 α      in ANC's #5, #6, #1, ...

........................................................................
.............................. CYCLE   53 ..............................
........................................................................

 iter      E             dE          RMSdq      gap      omega  full diag
   1   -162.2920709 -0.162292E+03  0.728E-02    2.96       0.0  T
   2   -162.2920737 -0.285544E-05  0.404E-02    2.96       1.0  T
   3   -162.2920707  0.303931E-05  0.805E-03    2.96       1.3  T
   4   -162.2920739 -0.319122E-05  0.436E-03    2.96       2.4  T
   5   -162.2920750 -0.114225E-05  0.107E-03    2.96       9.6  T
   6   -162.2920751 -0.657734E-07  0.503E-04    2.96      20.5  T
   7   -162.2920751 -0.698171E-08  0.272E-04    2.96      38.0  T
     SCC iter.                  ...        0 min,  0.907 sec
     gradient                   ...        0 min,  0.119 sec
 * total energy  :  -160.1862900 Eh     change       -0.2717376E-03 Eh
   gradient norm :     0.0056567 Eh/α   predicted    -0.2180143E-03 ( -19.77%)
   displ. norm   :     0.6329106 α      lambda       -0.3304226E-03
   maximum displ.:     0.3049144 α      in ANC's #5, #6, #1, ...

........................................................................
.............................. CYCLE   54 ..............................
........................................................................

 iter      E             dE          RMSdq      gap      omega  full diag
   1   -162.2924600 -0.162292E+03  0.779E-02    2.96       0.0  T
   2   -162.2924633 -0.324576E-05  0.433E-02    2.96       1.0  T
   3   -162.2924619  0.140513E-05  0.776E-03    2.96       1.3  T
   4   -162.2924633 -0.145288E-05  0.461E-03    2.96       2.2  T
   5   -162.2924645 -0.113454E-05  0.137E-03    2.96       7.5  T
   6   -162.2924645 -0.839127E-07  0.808E-04    2.96      12.8  T
   7   -162.2924646 -0.111410E-07  0.543E-04    2.96      19.0  T
     SCC iter.                  ...        0 min,  1.037 sec
     gradient                   ...        0 min,  0.120 sec
 * total energy  :  -160.1865722 Eh     change       -0.2821528E-03 Eh
[...]
    40   6 C        2.914    -0.038    28.939     8.821
    41   6 C        2.929    -0.032    28.809     8.802
    42   6 C        2.976    -0.011    28.285     8.724
    43   6 C        2.978     0.018    27.598     8.617
    44   6 C        2.924    -0.030    28.738     8.791
    45   6 C        2.918    -0.021    28.531     8.759
    46   6 C        2.978    -0.020    28.494     8.756
    47   6 C        3.336     0.487    17.273     6.581
    48   9 F        0.791    -0.198    11.210     3.955
    49   9 F        0.791    -0.195    11.186     3.951
    50   9 F        0.791    -0.214    11.376     3.984
    51   6 C        2.920    -0.020    28.514     8.757
    52   6 C        2.926    -0.026    28.647     8.777
    53   6 C        3.191     0.115    25.018     8.158
    54   6 C        3.021    -0.016    28.385     8.739
    55   8 O        1.658    -0.252    18.197     5.759
    56   1 H        0.925     0.057     2.231     2.336
    57   1 H        0.925     0.067     2.119     2.276
    58   1 H        0.925     0.058     2.217     2.329
    59   1 H        0.924     0.072     2.062     2.246
    60   1 H        0.925     0.059     2.212     2.326
    61   1 H        0.925     0.076     2.024     2.225
    62   1 H        0.925     0.041     2.432     2.439
    63   1 H        0.924     0.049     2.338     2.391
    64   1 H        0.925     0.063     2.163     2.300
    65   1 H        0.925     0.066     2.133     2.284
    66   1 H        0.925     0.052     2.300     2.371
    67   1 H        0.925     0.061     2.184     2.311
    68   1 H        0.925     0.069     2.095     2.264
    69   1 H        0.925     0.046     2.376     2.411
    70   1 H        0.925     0.050     2.325     2.385
    71   1 H        0.926     0.056     2.245     2.343
    72   1 H        0.926     0.056     2.243     2.342
    73   1 H        0.926     0.056     2.241     2.341
    74   1 H        0.926     0.049     2.336     2.390
    75   1 H        0.926     0.053     2.287     2.365
    76   1 H        0.926     0.070     2.084     2.258
    77   1 H        0.926     0.071     2.077     2.254
    78   1 H        0.926     0.060     2.194     2.316
    79   1 H        0.926     0.068     2.104     2.268
    80   1 H        0.926     0.067     2.119     2.276
    81   1 H        0.924     0.044     2.401     2.423
    82   1 H        0.925     0.054     2.270     2.356
    83   1 H        0.924     0.065     2.137     2.286
    84   1 H        0.925     0.065     2.139     2.287
    85   1 H        0.925     0.056     2.252     2.347
    86   1 H        0.924     0.039     2.468     2.457
    87   1 H        0.925     0.060     2.201     2.320
    88   1 H        0.924     0.068     2.112     2.273
    89   1 H        0.926     0.065     2.139     2.287
    90   1 H        0.926     0.067     2.116     2.275
    91   1 H        0.926     0.060     2.204     2.322
    92   1 H        0.926     0.076     2.021     2.223
    93   1 H        0.926     0.071     2.078     2.254
    94   1 H        0.926     0.054     2.276     2.359

 Mol. C6AA /au·bohr⁶  :     121175.928393
 Mol. C8AA /au·bohr⁸  :    3302456.450881
 Mol. α(0) /au        :        548.500900


Wiberg/Mayer (AO) data.
largest (>0.10) Wiberg bond orders for each atom

 ---------------------------------------------------------------------------
     #   Z sym  total        # sym  WBO       # sym  WBO       # sym  WBO
 ---------------------------------------------------------------------------
     1   6 C    3.989 --     2 C    1.007    58 H    0.983    57 H    0.980
                            56 H    0.977
     2   6 C    3.954 --     3 C    1.008     1 C    1.007    59 H    0.952
                             4 N    0.938
     3   6 C    3.988 --     2 C    1.008    61 H    0.976    60 H    0.976
                            62 H    0.954
     4   7 N    3.390 --     8 P    1.235     5 C    0.940     2 C    0.938
     5   6 C    3.955 --     7 C    1.006     6 C    1.003     4 N    0.940
                            63 H    0.939
     6   6 C    3.985 --     5 C    1.003    66 H    0.984    64 H    0.978
                            65 H    0.977
     7   6 C    3.990 --     5 C    1.006    67 H    0.981    68 H    0.979
                            69 H    0.975
     8  15 P    5.040 --    17 O    1.302    55 O    1.293     4 N    1.235
                             9 Se   0.889
     9  34 Se   2.554 --    10 S    1.272     8 P    0.889
    10  16 S    2.435 --     9 Se   1.272    11 C    0.972
    11   6 C    3.955 --    12 C    1.407    16 C    1.406    10 S    0.972
                            14 C    0.103
    12   6 C    3.990 --    13 C    1.444    11 C    1.407    70 H    0.954
                            15 C    0.110
    13   6 C    3.990 --    12 C    1.444    14 C    1.430    71 H    0.967
                            16 C    0.108
    14   6 C    3.982 --    15 C    1.439    13 C    1.430    72 H    0.968
                            11 C    0.103
    15   6 C    3.987 --    14 C    1.439    16 C    1.436    73 H    0.967
                            12 C    0.110
    16   6 C    3.989 --    15 C    1.436    11 C    1.406    74 H    0.966
                            13 C    0.108
    17   8 O    2.405 --     8 P    1.302    18 C    0.874
    18   6 C    3.875 --    33 C    1.411    19 C    1.331    17 O    0.874
    19   6 C    3.981 --    30 C    1.393    18 C    1.331    20 C    1.051
    20   6 C    3.989 --    21 C    1.378    29 C    1.378    19 C    1.051
    21   6 C    3.988 --    22 C    1.452    20 C    1.378    75 H    0.963
                            28 C    0.107
    22   6 C    3.987 --    21 C    1.452    23 C    1.410    76 H    0.965
                            29 C    0.107
    23   6 C    3.972 --    22 C    1.410    28 C    1.407    24 C    0.949
    24   6 C    3.830 --    27 F    0.957    25 F    0.957    23 C    0.949
                            26 F    0.932
    25   9 F    1.082 --    24 C    0.957
    26   9 F    1.063 --    24 C    0.932
    27   9 F    1.082 --    24 C    0.957
    28   6 C    3.987 --    29 C    1.456    23 C    1.407    77 H    0.965
                            21 C    0.107
    29   6 C    3.988 --    28 C    1.456    20 C    1.378    78 H    0.964
                            22 C    0.107
    30   6 C    3.983 --    31 C    1.434    19 C    1.393    79 H    0.963
    31   6 C    3.987 --    30 C    1.434    32 C    1.429    80 H    0.965
    32   6 C    3.978 --    31 C    1.429    33 C    1.343    36 C    1.018
    33   6 C    3.981 --    18 C    1.411    32 C    1.343    34 C    0.988
    34   6 C    3.987 --    54 C    0.992    33 C    0.988    35 C    0.957
                            37 C    0.954
    35   6 C    3.992 --    36 C    1.002    81 H    0.978    82 H    0.977
                            34 C    0.957
    36   6 C    3.993 --    32 C    1.018    35 C    1.002    84 H    0.963
                            83 H    0.955
    37   6 C    3.992 --    38 C    1.003    86 H    0.977    85 H    0.977
                            34 C    0.954
    38   6 C    3.993 --    39 C    1.018    37 C    1.003    87 H    0.962
                            88 H    0.953
    39   6 C    3.981 --    40 C    1.432    54 C    1.345    38 C    1.018
                            42 C    0.100
    40   6 C    3.987 --    39 C    1.432    41 C    1.429    89 H    0.965
    41   6 C    3.983 --    40 C    1.429    42 C    1.403    90 H    0.966
                            54 C    0.100
    42   6 C    3.985 --    41 C    1.403    53 C    1.335    43 C    1.031
                            39 C    0.100
    43   6 C    3.988 --    44 C    1.394    52 C    1.385    42 C    1.031
                            46 C    0.102
    44   6 C    3.988 --    45 C    1.442    43 C    1.394    91 H    0.960
                            51 C    0.109
    45   6 C    3.986 --    44 C    1.442    46 C    1.417    92 H    0.964
                            52 C    0.109
    46   6 C    3.974 --    45 C    1.417    51 C    1.406    47 C    0.949
                            43 C    0.102
    47   6 C    3.831 --    49 F    0.961    48 F    0.955    46 C    0.949
                            50 F    0.931
    48   9 F    1.082 --    47 C    0.955
    49   9 F    1.086 --    47 C    0.961
    50   9 F    1.062 --    47 C    0.931
    51   6 C    3.986 --    52 C    1.453    46 C    1.406    93 H    0.965
                            44 C    0.109
    52   6 C    3.989 --    51 C    1.453    43 C    1.385    94 H    0.967
                            45 C    0.109
    53   6 C    3.882 --    54 C    1.407    42 C    1.335    55 O    0.893
    54   6 C    3.982 --    53 C    1.407    39 C    1.345    34 C    0.992
                            41 C    0.100
    55   8 O    2.413 --     8 P    1.293    53 C    0.893
    56   1 H    0.997 --     1 C    0.977
    57   1 H    0.994 --     1 C    0.980
    58   1 H    0.997 --     1 C    0.983
    59   1 H    0.994 --     2 C    0.952
    60   1 H    0.997 --     3 C    0.976
    61   1 H    0.994 --     3 C    0.976
    62   1 H    0.998 --     3 C    0.954
    63   1 H    0.997 --     5 C    0.939
    64   1 H    0.996 --     6 C    0.978
    65   1 H    0.995 --     6 C    0.977
    66   1 H    0.997 --     6 C    0.984
    67   1 H    0.996 --     7 C    0.981
    68   1 H    0.995 --     7 C    0.979
    69   1 H    0.998 --     7 C    0.975
    70   1 H    0.998 --    12 C    0.954
    71   1 H    0.997 --    13 C    0.967
    72   1 H    0.996 --    14 C    0.968
    73   1 H    0.996 --    15 C    0.967
    74   1 H    0.998 --    16 C    0.966
    75   1 H    0.997 --    21 C    0.963
    76   1 H    0.994 --    22 C    0.965
    77   1 H    0.994 --    28 C    0.965
    78   1 H    0.996 --    29 C    0.964
    79   1 H    0.994 --    30 C    0.963
    80   1 H    0.994 --    31 C    0.965
    81   1 H    0.998 --    35 C    0.978
    82   1 H    0.996 --    35 C    0.977
    83   1 H    0.994 --    36 C    0.955
    84   1 H    0.994 --    36 C    0.963
    85   1 H    0.996 --    37 C    0.977
    86   1 H    0.998 --    37 C    0.977
    87   1 H    0.995 --    38 C    0.962
    88   1 H    0.994 --    38 C    0.953
    89   1 H    0.994 --    40 C    0.965
    90   1 H    0.995 --    41 C    0.966
    91   1 H    0.996 --    44 C    0.960
    92   1 H    0.994 --    45 C    0.964
    93   1 H    0.994 --    51 C    0.965
    94   1 H    0.997 --    52 C    0.967
 ---------------------------------------------------------------------------

Topologies differ in total number of bonds
Writing topology from bond orders to xtbtopo.mol

molecular dipole:
                 x           y           z       tot (Debye)
 q only:        0.856      -1.589       2.821
   full:        0.899      -1.633       2.850       8.656
molecular quadrupole (traceless):
                xx          xy          yy          xz          yz          zz
 q only:      -41.411      10.286      20.450       7.678      20.122      20.961
  q+dip:      -42.935      12.876      20.395       8.386      21.193      22.540
   full:      -40.418      10.891      19.309       6.902      21.297      21.109

           -------------------------------------------------
          |                Geometry Summary                 |
           -------------------------------------------------

      molecular mass/u    :      857.7652029
   center of mass at/Å    :       -0.1336272       0.4880964      -0.2957665
  moments of inertia/u·Å² :        0.8580773E+04   0.1339062E+05   0.1587288E+05
rotational constants/cm⁻¹ :        0.1964582E-02   0.1258913E-02   0.1062040E-02

 * 87 selected distances

     #   Z          #   Z                                           value/Å
     1   6 C        2   6 C                                       1.5235465
     2   6 C        3   6 C                                       1.5226898
     2   6 C        4   7 N                                       1.4750536
     4   7 N        5   6 C                                       1.4744708
     5   6 C        6   6 C                                       1.5250588
     5   6 C        7   6 C                                       1.5248217
     4   7 N        8  15 P                                       1.6442078 (max)
    11   6 C       12   6 C                                       1.3849969
    12   6 C       13   6 C                                       1.3823050
    13   6 C       14   6 C                                       1.3859702
    14   6 C       15   6 C                                       1.3850610
    11   6 C       16   6 C                                       1.3854977
    15   6 C       16   6 C                                       1.3847101
     8  15 P       17   8 O                                       1.5818277
    18   6 C       19   6 C                                       1.4034564
    20   6 C       21   6 C                                       1.3959326
    21   6 C       22   6 C                                       1.3808521
    22   6 C       23   6 C                                       1.3880159
    24   6 C       25   9 F                                       1.3366909
    24   6 C       26   9 F                                       1.3519805
    24   6 C       27   9 F                                       1.3367826
    23   6 C       28   6 C                                       1.3888582
    20   6 C       29   6 C                                       1.3955336
    28   6 C       29   6 C                                       1.3811002
    19   6 C       30   6 C                                       1.3940713
    30   6 C       31   6 C                                       1.3843426
    31   6 C       32   6 C                                       1.3789464
    18   6 C       33   6 C                                       1.3798689
    32   6 C       33   6 C                                       1.3990444
    35   6 C       36   6 C                                       1.5345443
    37   6 C       38   6 C                                       1.5324096
    39   6 C       40   6 C                                       1.3790013
    40   6 C       41   6 C                                       1.3853207
    41   6 C       42   6 C                                       1.3908337
    43   6 C       44   6 C                                       1.3920693
    44   6 C       45   6 C                                       1.3831718
    45   6 C       46   6 C                                       1.3874018
    47   6 C       48   9 F                                       1.3382547
    47   6 C       49   9 F                                       1.3341268
    47   6 C       50   9 F                                       1.3527040
    46   6 C       51   6 C                                       1.3897622
    43   6 C       52   6 C                                       1.3938632
    51   6 C       52   6 C                                       1.3806516
    42   6 C       53   6 C                                       1.4001759
    39   6 C       54   6 C                                       1.3980771
    53   6 C       54   6 C                                       1.3781517
     8  15 P       55   8 O                                       1.5819084
    53   6 C       55   8 O                                       1.4150143
     1   6 C       56   1 H                                       1.0841479
     1   6 C       57   1 H                                       1.0866313
     1   6 C       58   1 H                                       1.0869294
     2   6 C       59   1 H                                       1.0915884
     3   6 C       60   1 H                                       1.0877421
     3   6 C       61   1 H                                       1.0869092
     3   6 C       62   1 H                                       1.0896620
     5   6 C       63   1 H                                       1.0931403
     6   6 C       64   1 H                                       1.0861541
     6   6 C       65   1 H                                       1.0858048
     6   6 C       66   1 H                                       1.0872088
     7   6 C       67   1 H                                       1.0864738
     7   6 C       68   1 H                                       1.0870434
     7   6 C       69   1 H                                       1.0892527
    12   6 C       70   1 H                                       1.0824062
    13   6 C       71   1 H                                       1.0786927
    14   6 C       72   1 H                                       1.0792264
    15   6 C       73   1 H                                       1.0793670
    16   6 C       74   1 H                                       1.0793085
    21   6 C       75   1 H                                       1.0781292
    22   6 C       76   1 H                                       1.0788533
    28   6 C       77   1 H                                       1.0791241
    29   6 C       78   1 H                                       1.0784377
    30   6 C       79   1 H                                       1.0781655
    31   6 C       80   1 H                                       1.0784897
    35   6 C       81   1 H                                       1.0915554
    35   6 C       82   1 H                                       1.0868851
    36   6 C       83   1 H                                       1.0917754
    36   6 C       84   1 H                                       1.0896635
    37   6 C       85   1 H                                       1.0865149
    37   6 C       86   1 H                                       1.0921684
    38   6 C       87   1 H                                       1.0890063
    38   6 C       88   1 H                                       1.0920089
    40   6 C       89   1 H                                       1.0781202 (min)
    41   6 C       90   1 H                                       1.0786723
    44   6 C       91   1 H                                       1.0802032
    45   6 C       92   1 H                                       1.0785825
    51   6 C       93   1 H                                       1.0789698
    52   6 C       94   1 H                                       1.0793532

 * 7 distinct bonds (by element types)

   Z      Z             #   av. dist./Å        max./Å        min./Å
   1 H    6 C          39     1.0844197     1.0931403     1.0781202
   6 C    6 C          36     1.4111143     1.5345443     1.3781517
   6 C    7 N           2     1.4747622     1.4750536     1.4744708
   6 C    8 O           1     1.4150143     1.4150143     1.4150143
   6 C    9 F           6     1.3417566     1.3527040     1.3341268
   7 N   15 P           1     1.6442078     1.6442078     1.6442078
   8 O   15 P           2     1.5818681     1.5819084     1.5818277


optimized geometry written to: xtbopt.xyz


           -------------------------------------------------
          | TOTAL ENERGY             -160.206369743318 Eh   |
          | GRADIENT NORM               0.000017260033 Eh/α |
          | HOMO-LUMO GAP               3.055021251860 eV   |
           -------------------------------------------------

------------------------------------------------------------------------
 * finished run on 2024/12/16 at 20:21:59.678     
------------------------------------------------------------------------
 total:
 * wall-time:     0 d,  0 h,  3 min, 59.423 sec
 *  cpu-time:     0 d,  0 h, 31 min, 31.441 sec
 * ratio c/w:     7.900 speedup
 SCF:
 * wall-time:     0 d,  0 h,  0 min,  2.586 sec
 *  cpu-time:     0 d,  0 h,  0 min, 20.549 sec
 * ratio c/w:     7.947 speedup
 ANC optimizer:
 * wall-time:     0 d,  0 h,  3 min, 56.668 sec
 *  cpu-time:     0 d,  0 h, 31 min,  9.639 sec
 * ratio c/w:     7.900 speedup

