94
 energy: -160.206369743318 gnorm: 0.000017260033 xtb: 6.7.1 (edcfbbe)
C            2.21121258377007       -1.77727541333663       -2.64733293616817
C            1.14608259872105       -0.76744756992694       -3.05591520569549
C            1.71906373951299        0.62966697169868       -3.25174028071549
N            0.02675735111116       -0.77773652589008       -2.09529673739901
C           -1.32833576141598       -0.85440294056492       -2.67141189168470
C           -1.53818319735856       -2.22822720780512       -3.29940457663240
C           -1.64839563540555        0.27002360248444       -3.65034368662291
P            0.15239513505964        0.07426939594177       -0.69468265177299
Se          -0.04672497772814        2.35019625580350       -0.64038634349413
S           -1.90096413120104        2.63893335710691        0.41703232703221
C           -1.38478846372824        2.77060759959537        2.12766573101890
C           -0.32872338587737        3.59026691033217        2.48974486893292
C           -0.00507688325830        3.73128358946760        3.82620808434991
C           -0.74121831188408        3.06653711470028        4.79425822281004
C           -1.79653862460720        2.24935316690970        4.42425426817855
C           -2.12052132156360        2.09385206163117        3.08698982099438
O           -1.00312228210005       -0.28656041774656        0.32353131207031
C           -1.20288941123857       -1.59807256416176        0.83494275312942
C           -2.30801739200429       -2.35814499156800        0.42181848236459
C           -3.43001318388001       -1.76678801967085       -0.32443989773064
C           -3.86037501409719       -0.47121947489782       -0.03303247867097
C           -4.89809343623722        0.10607255974811       -0.73774979978774
C           -5.53692424862347       -0.62213994495479       -1.73182705012968
C           -6.60399869916517        0.02775161330588       -2.56886853614394
F           -7.24444407572556        1.01035456638379       -1.92772631065621
F           -6.06134671957737        0.58377817698684       -3.67531068081690
F           -7.52895026139344       -0.83736374158724       -2.99668545003023
C           -5.15568884720249       -1.93000796913836       -2.00213689129050
C           -4.11181179938525       -2.49775380111060       -1.29827422592889
C           -2.36624615755690       -3.69570154832772        0.81038808476748
C           -1.36130215139847       -4.28095048322732        1.56137106537970
C           -0.34337174594478       -3.48520991615274        2.04314650421018
C           -0.29478439379429       -2.12205497299776        1.73206350755906
C            0.70772865423171       -1.45484132143242        2.63572667658054
C            1.69603987860877       -2.61730888277626        2.89703089578319
C            0.80959180326468       -3.86974405441883        2.91804730537601
C            0.00413125155075       -1.04499069923467        3.95733863142055
C            0.98251332911972       -0.07694572261205        4.63108648259557
C            1.68774693455229        0.54309922226843        3.46634828910182
C            2.46805360816974        1.67969244254455        3.43599207332204
C            3.03590347816475        2.07310923770031        2.23520782826305
C            2.78570576350385        1.37810906709292        1.05673687155802
C            3.46601997319409        1.77159064013570       -0.19021897840509
C            3.35829812566286        3.06276717010522       -0.69925302200372
C            4.00422774891147        3.40860495231683       -1.87242602241457
C            4.78141479848895        2.46395678287068       -2.52702791016744
C            5.43066059406745        2.78049662491802       -3.84671812869162
F            6.68956569810946        2.33261483184496       -3.92077953518242
F            5.45439738613792        4.08468840498680       -4.12674367360977
F            4.75743111818689        2.18165470028660       -4.85565721793413
C            4.93191210288632        1.18383146100050       -2.00734696151218
C            4.27300774341298        0.84151966682729       -0.84335975695831
C            1.94675036857075        0.25790234178931        1.09896070020512
C            1.43999177322821       -0.18778554522936        2.30056787964752
O            1.54863141157327       -0.37518616230565       -0.10227419611666
H            2.74467341918317       -1.45388909254899       -1.76064398261110
H            2.92557205144649       -1.89296892401908       -3.45793335063871
H            1.75322484096252       -2.74294011187983       -2.44945862639614
H            0.72185586181855       -1.10089973558813       -4.00481262440141
H            0.96724602043962        1.31258055892163       -3.64107526294567
H            2.54357196606238        0.59748913085988       -3.95921617338975
H            2.09568773757403        1.02406379432924       -2.30835886232680
H           -2.01702061681733       -0.75756625168417       -1.82803097651049
H           -0.94343445643444       -2.35485977179845       -4.19938716693519
H           -2.58378712774183       -2.33892405319061       -3.57038528460279
H           -1.27247998357629       -3.01052033855119       -2.59269245487758
H           -1.04836917587912        0.20636245974788       -4.55385942401254
H           -2.69489202087439        0.20143911572502       -3.93635883295157
H           -1.49140047335252        1.24315623293440       -3.18683900314239
H            0.22718752467098        4.12273924166593        1.72879851879030
H            0.80816176851360        4.38024650175656        4.11093225245054
H           -0.49975800633193        3.19698822549454        5.83800570720249
H           -2.37606258520812        1.73518205198853        5.17579462037902
H           -2.95260874263282        1.47263976471763        2.79265587234755
H           -3.37943606271038        0.09000323930443        0.75188095099942
H           -5.21427787318369        1.11341915953206       -0.51592898381779
H           -5.67484559635481       -2.49538855990218       -2.76064174654783
H           -3.80815792063526       -3.50740150782600       -1.52506366345547
H           -3.22225108583118       -4.28250498791306        0.51822727356607
H           -1.39829086304043       -5.33241257886271        1.79843460802862
H            2.40554899712218       -2.67607578366943        2.06960339977443
H            2.25602553417799       -2.47889212840897        3.81821266595054
H            0.46378223038382       -4.10136589767391        3.92737403848822
H            1.32654236591138       -4.75168691670782        2.54081351647782
H           -0.23766314450537       -1.90481219464553        4.57601213428316
H           -0.92349041977445       -0.51989238234374        3.71938600548467
H            0.47759969954130        0.66658076448349        5.24603776800161
H            1.69562424850238       -0.60658622627194        5.26625338067343
H            2.65170462573176        2.24212320627623        4.33726170519056
H            3.68962063415202        2.93029299340165        2.19747647517318
H            2.75801090598462        3.79580229275192       -0.18045303679156
H            3.90920852462266        4.40450734474074       -2.27552620006754
H            5.55993506620835        0.46736476520342       -2.51374435746460
H            4.39306069383618       -0.14611999806241       -0.42484051139726
