83
 energy: -115.496621223234 gnorm: 0.136728951633 xtb: 6.7.1 (edcfbbe)
C            3.28195800000000        4.95735300000000       -3.10623700000000
C            3.16414900000000        4.10875100000000       -1.87563400000000
C            4.24479800000000        3.33021700000000       -1.44443100000000
C            4.12361300000000        2.51276100000000       -0.31706600000000
C            2.91485300000000        2.44734500000000        0.38240300000000
S            2.73486400000000        1.42230600000000        1.82535100000000
S            3.02970400000000       -0.47928800000000        1.11488700000000
P            1.12449200000000       -1.10390800000000        0.41649400000000
N            1.01296200000000       -2.64859000000000       -0.24364100000000
C           -0.35687800000000       -3.20983200000000       -0.42620600000000
C           -0.77711700000000       -4.33725200000000        0.52905200000000
C           -0.73516400000000       -3.54745200000000       -1.87508300000000
C            2.18136100000000       -3.53230700000000       -0.55339900000000
C            1.93112600000000       -4.82117600000000       -1.38853800000000
C            2.82208100000000       -4.01548400000000        0.76446500000000
C            3.22720300000000       -2.78461700000000       -1.41614300000000
N            0.04518100000000       -1.02922900000000        1.68134200000000
C            0.42458500000000       -1.91937800000000        2.78222700000000
C           -0.50942400000000        0.22144800000000        2.10331400000000
C           -0.26671100000000        0.72768800000000        3.39797400000000
C           -0.74187100000000        1.96703200000000        3.81485600000000
C           -1.46041400000000        2.77301800000000        2.94385300000000
C           -1.86543500000000        4.05245300000000        3.36448500000000
C           -2.55136400000000        4.90694800000000        2.50696100000000
C           -2.82941700000000        4.49231700000000        1.21532800000000
C           -2.43434100000000        3.21891300000000        0.79480700000000
C           -1.75999300000000        2.29971200000000        1.64439900000000
C           -1.34707600000000        0.97165500000000        1.23231200000000
C           -1.81268000000000        0.41080500000000        0.00239800000000
C           -0.88568100000000        0.02914500000000       -1.00125100000000
C           -1.37192400000000       -0.24995800000000       -2.29476800000000
C           -2.73078000000000       -0.25954800000000       -2.59189200000000
C           -3.66760800000000       -0.02064900000000       -1.59552300000000
C           -5.03818800000000       -0.10696700000000       -1.89902100000000
C           -6.00447300000000        0.09415800000000       -0.91809200000000
C           -5.60840200000000        0.37486900000000        0.37937400000000
C           -4.24754700000000        0.46910500000000        0.68497100000000
C           -3.22775000000000        0.30035500000000       -0.28901600000000
N            0.50577300000000       -0.05816000000000       -0.70848100000000
C            1.38515600000000        0.17107400000000       -1.85169400000000
C            1.83702900000000        3.22598100000000       -0.04611500000000
C            1.95614000000000        4.04289700000000       -1.17309500000000
H            3.02157500000000        4.36931900000000       -3.99147900000000
H            2.61546900000000        5.82437100000000       -3.04941700000000
H            4.30222300000000        5.33831900000000       -3.22061700000000
H            5.19065900000000        3.35799500000000       -1.98048100000000
H            4.97857600000000        1.92464900000000        0.00761900000000
H           -1.05771600000000       -2.41271400000000       -0.16817600000000
H           -1.75675900000000       -4.73427500000000        0.23783100000000
H           -0.88927900000000       -3.97293200000000        1.55174200000000
H           -0.08445900000000       -5.17739800000000        0.55664500000000
H           -1.80674000000000       -3.37308100000000       -2.02925500000000
H           -0.56139600000000       -4.59700300000000       -2.12518000000000
H           -0.19895300000000       -2.92034600000000       -2.59344500000000
H            2.86141200000000       -5.39547400000000       -1.49932300000000
H            1.22229200000000       -5.51308400000000       -0.93482500000000
H            1.60621200000000       -4.58958000000000       -2.40793500000000
H            3.12252600000000       -3.20101900000000        1.42285400000000
H            2.13285500000000       -4.65218800000000        1.32961400000000
H            3.72494000000000       -4.60728600000000        0.57130300000000
H            2.79253200000000       -2.46841300000000       -2.37076000000000
H            4.07755100000000       -3.43645000000000       -1.65534800000000
H            3.66072400000000       -1.90935500000000       -0.94412800000000
H            0.72594800000000       -2.90287500000000        2.41919400000000
H           -0.41928600000000       -2.08506500000000        3.46211000000000
H            1.28159200000000       -1.54177400000000        3.34996900000000
H            0.34288200000000        0.18801200000000        4.11516300000000
H           -0.49912200000000        2.30773700000000        4.81864500000000
H           -1.63545500000000        4.39956400000000        4.36998000000000
H           -2.85301800000000        5.89443700000000        2.84373500000000
H           -3.34906900000000        5.15251900000000        0.52621200000000
H           -2.65164400000000        2.95035100000000       -0.23791500000000
H           -0.69816000000000       -0.51429500000000       -3.10341400000000
H           -3.04306300000000       -0.50194100000000       -3.60479200000000
H           -5.36471100000000       -0.34343000000000       -2.90956700000000
H           -7.05964300000000        0.01933700000000       -1.16492300000000
H           -6.34918400000000        0.51856000000000        1.16123700000000
H           -3.98361100000000        0.66871600000000        1.72252600000000
H            2.42167500000000        0.31966200000000       -1.54479300000000
H            1.38161300000000       -0.67897000000000       -2.54053300000000
H            1.09752600000000        1.07581600000000       -2.40033800000000
H            0.88845900000000        3.19008300000000        0.48466800000000
H            1.09523800000000        4.62498500000000       -1.49432800000000
83
 energy: -115.517771161550 gnorm: 0.058034479876 xtb: 6.7.1 (edcfbbe)
C            3.28317789521539        4.95694717861657       -3.09474865846156
C            3.16036891746220        4.09992507014827       -1.87237730177209
C            4.23514014006060        3.32642167640475       -1.43514686450862
C            4.11798510491396        2.51272161487692       -0.31899246367133
C            2.90901138024508        2.44710903258140        0.36554590144325
S            2.70433486662628        1.40026160991486        1.79342215526832
S            3.01698733610223       -0.48963249388883        1.03398821059218
P            1.07073914916665       -1.13707778513319        0.39547939218258
N            1.00967013564585       -2.68971292226641       -0.25811436744444
C           -0.37554978124822       -3.20164256350187       -0.42326775520744
C           -0.76979523479725       -4.33624171852940        0.53065980865972
C           -0.73286585401583       -3.54731258810860       -1.87504734550202
C            2.20506538703999       -3.54654552206255       -0.54897308572439
C            1.91564852786367       -4.81322333979811       -1.38342051326692
C            2.83157425250581       -4.01085093417791        0.77209697194071
C            3.22652869863185       -2.77078315456628       -1.40091565891307
N            0.01955179043556       -1.03206239477885        1.68923730307503
C            0.42108835364367       -1.92000593310152        2.78302399367549
C           -0.50954679800446        0.24036938428368        2.10094036042532
C           -0.24307851437076        0.73695068290767        3.39014007733933
C           -0.72506402313374        1.95182815108379        3.81266165128928
C           -1.45698132768641        2.77130093513127        2.94628830522741
C           -1.86698889339355        4.05323742555364        3.36046238955610
C           -2.54599161324398        4.88861368074028        2.50616476823335
C           -2.81936726539649        4.45984427276941        1.20793707200309
C           -2.43851833546743        3.19947001935085        0.78798902408822
C           -1.76573951497401        2.29504233199786        1.64385380664665
C           -1.34966156610846        0.97286277262905        1.24808719456013
C           -1.81927279882329        0.41648748504538       -0.01340670998829
C           -0.90850880178644        0.02915539902340       -1.00448422135657
C           -1.37457141318735       -0.26930930842038       -2.29557995405382
C           -2.71449688486905       -0.26599921421618       -2.59489998941478
C           -3.66739088320066       -0.01990855599032       -1.59921263031596
C           -5.04112044341028       -0.10624995093352       -1.89478512630407
C           -5.98749723554263        0.09576822716574       -0.91885669154345
C           -5.57688910265295        0.37782853432915        0.38354642012851
C           -4.23386369442676        0.48245815081272        0.69044861828847
C           -3.22848358563864        0.31276877607291       -0.28902909684808
N            0.48810010932079       -0.04563278860683       -0.71831955339450
C            1.38329526390342        0.17724348070666       -1.85205592427227
C            1.83204686283731        3.21746787769282       -0.05494555908303
C            1.96040972493442        4.03549199189849       -1.16663004993395
H            3.02588527871060        4.37612698800970       -3.98142289607309
H            2.61199212683330        5.81372095680500       -3.04445218944714
H            4.30083668393659        5.32656594252327       -3.21619984214531
H            5.17692697284009        3.35995045773310       -1.96644478975257
H            4.96568573684698        1.92417451969870        0.00863553576908
H           -1.03217285667516       -2.36440042546967       -0.15465610143022
H           -1.74365653916753       -4.71854545497560        0.22360435987224
H           -0.88018085523448       -3.97265515614612        1.54957413213941
H           -0.07678108705197       -5.17300750577688        0.54122413373912
H           -1.79711014290261       -3.36109315994024       -2.02298687256000
H           -0.55602650150063       -4.59212716346656       -2.11764816758951
H           -0.19058948045717       -2.92380804370849       -2.58302396883073
H            2.85412890108759       -5.36377045892165       -1.47575482778345
H            1.20542789076705       -5.49533637788357       -0.92806642149306
H            1.59709082279189       -4.57637569671928       -2.39591766094117
H            3.11795865579983       -3.17528475600371        1.41039557821878
H            2.13568664098447       -4.64465371896739        1.32302602852120
H            3.72676451013352       -4.59819814842657        0.57214206525367
H            2.78316069761902       -2.46740811541341       -2.35054208836208
H            4.06590019053352       -3.42640666142783       -1.63640350337998
H            3.63683513370229       -1.89345650539128       -0.90672426423644
H            0.71567463792059       -2.89409058425796        2.39000597424306
H           -0.42190136677252       -2.06701357851758        3.46018731622087
H            1.27584003735159       -1.53749396886101        3.35012915235131
H            0.34672637085216        0.17677477611568        4.09987351375572
H           -0.50188339509613        2.28664929508420        4.81620507382695
H           -1.63383344926635        4.39115745702350        4.36143073966718
H           -2.85054750812121        5.87333389046098        2.83668682084547
H           -3.33391690245984        5.11990617785983        0.52188473246974
H           -2.65329018153692        2.92209872163049       -0.23606524487133
H           -0.68935004886190       -0.50833907216568       -3.09514121396249
H           -3.02918982844421       -0.49078849236971       -3.60449691358416
H           -5.35717867182266       -0.34431243248248       -2.90173611668673
H           -7.04017350723053        0.02301719347471       -1.15973616932555
H           -6.31584061493063        0.51610504006422        1.16161380560859
H           -3.96163780035611        0.68114482190522        1.71896874664485
H            2.41232778049187        0.32157453027493       -1.51502645743092
H            1.38281392716549       -0.66658283035973       -2.54789478220482
H            1.08510249985181        1.08054794658648       -2.38723615838480
H            0.89353777576699        3.18421620690457        0.48408575756316
H            1.10947813472613        4.62269379184125       -1.48485871987681
83
 energy: -115.524288456368 gnorm: 0.013915703129 xtb: 6.7.1 (edcfbbe)
C            3.28385168341193        4.95463813152832       -3.08413632160453
C            3.15559658180693        4.09469671153212       -1.86736460641398
C            4.22539669125820        3.32075746012630       -1.42564725009531
C            4.10502484384893        2.49985224775199       -0.32158943709218
C            2.89098653726576        2.43326005747784        0.34632407748613
S            2.66384668613967        1.36561880727089        1.76020343582799
S            2.98299654789752       -0.50510679201180        0.98103312666243
P            1.03318367029910       -1.15447428626515        0.37395302524997
N            1.00870237273394       -2.70877791724117       -0.26780932320527
C           -0.38382887702795       -3.19423841419352       -0.42358205996291
C           -0.78138765545996       -4.32725595270031        0.52641268272932
C           -0.74643705224797       -3.53868239807726       -1.87212136423969
C            2.21555756162600       -3.55290226501055       -0.54260437649338
C            1.92018687273781       -4.80808999742501       -1.37399719340504
C            2.83838897529437       -4.00106558146211        0.77909979253082
C            3.22429002637509       -2.76337372456032       -1.38312111997066
N            0.00639574870706       -1.03442852160339        1.69067221234041
C            0.41837400378643       -1.92298794123679        2.77987705266192
C           -0.50880067607909        0.24909073670264        2.09477628098939
C           -0.22488874165115        0.73479969415644        3.38472688170871
C           -0.70754541687733        1.93612442850800        3.80888823293259
C           -1.44924973547899        2.76251543652407        2.94545676466386
C           -1.86639431372227        4.04589497676839        3.35300714919003
C           -2.54297946195014        4.86505244576126        2.49663969288352
C           -2.81479844959708        4.42244393903273        1.19450457983638
C           -2.44149870167032        3.17158899202972        0.77864445883263
C           -1.76243156510380        2.28390853778791        1.64243501816373
C           -1.34358334942843        0.96836427942327        1.25656874153368
C           -1.81744194630607        0.41790667879099       -0.02839884792356
C           -0.92166424303927        0.03148233255846       -1.00845898510154
C           -1.37328848206358       -0.28038095105461       -2.30205590685880
C           -2.70232215045046       -0.27105519362219       -2.60011897249343
C           -3.66211759437714       -0.01886391087303       -1.60258996850297
C           -5.03933033406388       -0.10357490493947       -1.88822314724712
C           -5.96889837060907        0.10143984985659       -0.91055981255778
C           -5.54401136607676        0.38833365924882        0.39428463397830
C           -4.21269308505890        0.49854325558985        0.69687243104669
C           -3.22127962438826        0.31989665834929       -0.29188269417482
N            0.47973139427263       -0.02115455115533       -0.72422495461706
C            1.38066143822494        0.19711658995903       -1.85361433248399
C            1.81778051040473        3.20794109202431       -0.06315816761547
C            1.95752018161380        4.03199297218756       -1.16291022234552
H            3.02899003289878        4.37736186946454       -3.97323819259281
H            2.60963364185074        5.80512301529939       -3.03469909053812
H            4.30159579844779        5.31526342324885       -3.20435160266161
H            5.16730850312962        3.36281984551787       -1.95093625850216
H            4.94685628174173        1.91241859025458        0.01413712192179
H           -1.00605521558118       -2.32909788031951       -0.14809539057395
H           -1.74963590095432       -4.70888928435644        0.21323020512613
H           -0.88375768260494       -3.97001450454211        1.54551853736101
H           -0.07978612721234       -5.15370140536474        0.52117349106562
H           -1.80552295898038       -3.34438429519897       -2.02192784543962
H           -0.56619892385747       -4.58168360660771       -2.10298963881800
H           -0.19090211995291       -2.92053520714246       -2.57022765470247
H            2.85383588488437       -5.35884828382377       -1.46128905465618
H            1.19923842170395       -5.47375061434645       -0.91867565351736
H            1.60018074083185       -4.55904433178893       -2.37840268454330
H            3.11314603539480       -3.14663584429931        1.39579626379202
H            2.14363311783602       -4.63048900265132        1.32955983734861
H            3.73457895531790       -4.58137594196271        0.58385608524122
H            2.77495854339039       -2.45828231973272       -2.32518547964516
H            4.06679585435870       -3.40861702049344       -1.61613798412127
H            3.61096279825028       -1.88872036983234       -0.86747714770851
H            0.70923452532989       -2.88614534408009        2.36215057632419
H           -0.42333473412232       -2.06173189134991        3.45680213889151
H            1.27253624132561       -1.53841121492040        3.34446530739992
H            0.37098407673545        0.16528010429968        4.07632463805768
H           -0.49856716310806        2.27383209505800        4.81147809224935
H           -1.62816478319651        4.37579919998209        4.35257833930731
H           -2.85203496336739        5.84928270853163        2.81559183641252
H           -3.32289623146963        5.08433091484200        0.50944066447338
H           -2.65638972998692        2.87706986260373       -0.23707763391435
H           -0.67523793834391       -0.51296630175933       -3.08788364724112
H           -3.02761999529731       -0.48591990801359       -3.60562209464776
H           -5.34618897669033       -0.34600989212984       -2.89423414273500
H           -7.02154820968396        0.02922468768630       -1.13892434279541
H           -6.28180349297027        0.51823269730702        1.17126225330169
H           -3.92457795979548        0.70487951745722        1.71607299248187
H            2.39920434254448        0.34037589584730       -1.48938908387715
H            1.39029036578976       -0.64225308688137       -2.55405978867091
H            1.07313876832554        1.09979797792660       -2.37772608628156
H            0.88485777974113        3.17023404390080        0.47889853288696
H            1.11666226237146        4.62932943485555       -1.47999562230127
83
 energy: -115.526173398312 gnorm: 0.011566888167 xtb: 6.7.1 (edcfbbe)
C            3.28519105401522        4.95205555107677       -3.07347689585368
C            3.14845612869374        4.08945852676255       -1.86060584610693
C            4.21381992305839        3.31064082373252       -1.41591470164641
C            4.08334140904300        2.48039873169560       -0.31907677723349
C            2.86178951349198        2.41217989700236        0.33506211787458
S            2.61791306068712        1.33719054684636        1.74324085606802
S            2.97799606893405       -0.51946074213774        0.95375642605314
P            1.02761752831927       -1.15781823746128        0.36007281302577
N            1.00673910552271       -2.70955714545988       -0.26983043543768
C           -0.39040693780559       -3.18299508786730       -0.42492875105144
C           -0.79498006940447       -4.31536495485063        0.52162567253935
C           -0.75646212840018       -3.52616801283349       -1.87193301669968
C            2.21502058223063       -3.55114611287943       -0.53486088334876
C            1.91771249018193       -4.80454367300759       -1.36436485851111
C            2.83896990418504       -3.98494896763348        0.79122707225255
C            3.22221774311044       -2.75325572101735       -1.36648924955543
N            0.01143672184730       -1.03996373553130        1.68441084338865
C            0.42183032269525       -1.93289640062897        2.76982972597809
C           -0.49915185645490        0.24324281823760        2.08819124441859
C           -0.20567125440128        0.72827498335109        3.37835954414865
C           -0.69260467472145        1.92709594026172        3.80300303558067
C           -1.44060613475758        2.75048429131526        2.93974248843469
C           -1.86347698459355        4.03409556174070        3.34185236762713
C           -2.54262026206353        4.84531592098569        2.47972004366539
C           -2.81469213274530        4.39597100630321        1.17801181419154
C           -2.43988335599681        3.14591236728982        0.76832957357390
C           -1.75374091778270        2.27025496530808        1.63884879501089
C           -1.33203699504916        0.95894165136098        1.25397172486185
C           -1.80837175603151        0.41234766525440       -0.03616711830740
C           -0.91829793926731        0.02907642781690       -1.01552930390418
C           -1.36852846209898       -0.28730298916132       -2.31060300499817
C           -2.69836577480120       -0.27597316572965       -2.60433846584347
C           -3.65490763556178       -0.01954926804387       -1.60266679524311
C           -5.03472856950483       -0.10123302903435       -1.87912762027774
C           -5.95581052720937        0.10734922498733       -0.89397203282942
C           -5.52253370991917        0.39889566736682        0.40913887059217
C           -4.19129238527477        0.50986272619015        0.70260351681047
C           -3.21019532938422        0.31964506630374       -0.29478911053875
N            0.48419190636009       -0.00653069714167       -0.72761835573288
C            1.38390909578158        0.22389545302540       -1.85424182122011
C            1.79385334631528        3.19509803856530       -0.07207725133033
C            1.94601467859430        4.02942777204472       -1.16309723915841
H            3.03287463949252        4.37706119208304       -3.96542148707452
H            2.61169866070571        5.80294229470356       -3.02427121359537
H            4.30486886756049        5.30890996674585       -3.18758808928795
H            5.16034644559964        3.35940304375304       -1.93306147585044
H            4.91966110227803        1.88806877161689        0.02116482184284
H           -1.00010477531113       -2.30919230026663       -0.14898474469094
H           -1.76194825549046       -4.69579432862010        0.20454511047340
H           -0.89683372957784       -3.96439667148324        1.54271366674244
H           -0.09094688930569       -5.13970985512494        0.51013899315511
H           -1.81381210616051       -3.32497309293398       -2.02238419776774
H           -0.58106103022311       -4.57137347817741       -2.09736863790055
H           -0.19451372467164       -2.91304327189357       -2.56958339650309
H            2.84805645361900       -5.36034881223322       -1.44860153732631
H            1.19044412993203       -5.46406070877763       -0.90974206067291
H            1.59970276463104       -4.55076965058012       -2.36863064566511
H            3.10846091451839       -3.12088085146560        1.39609924642932
H            2.15018868523753       -4.61377562542715        1.34913275702288
H            3.74077693604709       -4.55918947249488        0.60219424251316
H            2.77292049362970       -2.44188445057456       -2.30585809784349
H            4.07192620271603       -3.38857171228018       -1.59923869906957
H            3.59804433716362       -1.88195351876474       -0.83934288192562
H            0.70836297616360       -2.89206347139318        2.34373306140180
H           -0.41990944067548       -2.06973629717018        3.44732706346281
H            1.27743828141367       -1.55175095809000        3.33360459825045
H            0.39993641138203        0.15715628746820        4.05933586340680
H           -0.48668647264615        2.27045004560625        4.80459167525305
H           -1.62405469451452        4.36356656926855        4.34162244488058
H           -2.85820786871404        5.82970464408034        2.78961550465312
H           -3.32546219897823        5.05500710610219        0.49267241053484
H           -2.65635569265427        2.83504098385581       -0.24245265246542
H           -0.66467696476801       -0.52039296049350       -3.09054584489064
H           -3.03346645819359       -0.48852797501526       -3.60760628246937
H           -5.34231239160426       -0.34588516664217       -2.88467208358500
H           -7.01058389420613        0.03759236523234       -1.11056575124042
H           -6.25757315881747        0.53143202422326        1.18788105110018
H           -3.88732674971757        0.72642695771186        1.71552668741465
H            2.39661673706551        0.37489151359299       -1.48167671274327
H            1.40487038052637       -0.60969860644071       -2.56102728940963
H            1.06642571998291        1.12758599161987       -2.37069837929874
H            0.86008177614824        3.15468184172611        0.46734559488416
H            1.11347979058115        4.63964295254770       -1.47920964341093
83
 energy: -115.527511935733 gnorm: 0.010476105950 xtb: 6.7.1 (edcfbbe)
C            3.28743442671500        4.94904510318966       -3.05990628427823
C            3.13574871519244        4.08084248101757       -1.85323626894144
C            4.19375104482777        3.29340041104417       -1.40531915102693
C            4.04967239053525        2.45772133716555       -0.31365414213173
C            2.82245348988709        2.39801066978401        0.32966609719541
S            2.57227553458918        1.34029790296381        1.74879713260708
S            2.95539891834615       -0.51022410523463        0.96670583185543
P            1.02979135394084       -1.16083519882597        0.34308011576904
N            1.00313413651449       -2.70921365960988       -0.26884740111463
C           -0.39937057006509       -3.17002338932746       -0.42764349645557
C           -0.81593578919648       -4.29930628812537        0.51635278103989
C           -0.76762333871389       -3.51021578803784       -1.87395952545814
C            2.21216812091437       -3.54819098630764       -0.52513160398312
C            1.91448615374948       -4.80229748922821       -1.35049424330352
C            2.83660303393608       -3.96737666508194        0.80641009235633
C            3.21934807797365       -2.75031328223867       -1.35592343767605
N            0.02534949115887       -1.04798680794938        1.67389168463267
C            0.43057504676618       -1.94896413989757        2.75356454290885
C           -0.48124303173500        0.23238517126272        2.07971805652330
C           -0.18016416790531        0.72077914254368        3.36873310909157
C           -0.67054298386601        1.91922855725682        3.79162454717595
C           -1.42600422012445        2.73641150836518        2.92789907264007
C           -1.85741387702389        4.01940424853245        3.32351706204942
C           -2.54236216397830        4.82074557432465        2.45532016965837
C           -2.81543969545139        4.36510535571559        1.15563614215070
C           -2.43308448668573        3.11598386979696        0.75273493631896
C           -1.73869766998350        2.25368830909651        1.63041397176286
C           -1.31362915979401        0.94559116015288        1.24658769249064
C           -1.79367207806716        0.40122004830055       -0.04281743510118
C           -0.90859791259408        0.02279409612414       -1.02600455520502
C           -1.36238595932726       -0.29604229139338       -2.32074576426176
C           -2.69514121602842       -0.28520071798917       -2.60595226194948
C           -3.64545869211206       -0.02498887871412       -1.59822371648647
C           -5.02865454056654       -0.10023681336815       -1.86271474339670
C           -5.93948717276271        0.11563557035993       -0.86829378426713
C           -5.49704020327435        0.41316071268265        0.43099309987940
C           -4.16352410205140        0.51860781716958        0.71252231139192
C           -3.19475033578416        0.31358290342745       -0.29469884490420
N            0.49428025928315        0.00600533138927       -0.73321413583590
C            1.39167954126480        0.26231477751572       -1.85540411896795
C            1.75956944081840        3.18514593634723       -0.08207214359787
C            1.92617390317766        4.02526580716325       -1.16701577018589
H            3.03953295325842        4.37861112118935       -3.95645324954273
H            2.61732184107001        5.80294184575418       -3.01185014849950
H            4.31016624953619        5.30142253095615       -3.16358304194143
H            5.14616818672729        3.34554311647793       -1.91201455234657
H            4.87794037637610        1.85663302997627        0.03163544339491