      -----------------------------------------------------------      
     |                   =====================                   |     
     |                           x T B                           |     
     |                   =====================                   |     
     |                         S. Grimme                         |     
     |          Mulliken Center for Theoretical Chemistry        |     
     |                    University of Bonn                     |     
      -----------------------------------------------------------      

   * xtb version 6.7.1 (edcfbbe) compiled by 'conda@3ef47c1a292c' on 2024-11-25

   xtb is free software: you can redistribute it and/or modify it under
   the terms of the GNU Lesser General Public License as published by
   the Free Software Foundation, either version 3 of the License, or
   (at your option) any later version.
   
   xtb is distributed in the hope that it will be useful,
   but WITHOUT ANY WARRANTY; without even the implied warranty of
   MERCHANTABILITY or FITNESS FOR A PARTICULAR PURPOSE.  See the
   GNU Lesser General Public License for more details.
   
   Cite this work as:
   * C. Bannwarth, E. Caldeweyher, S. Ehlert, A. Hansen, P. Pracht,
     J. Seibert, S. Spicher, S. Grimme, WIREs Comput. Mol. Sci., 2020, 11,
     e01493. DOI: 10.1002/wcms.1493
   
   for GFN2-xTB:
   * C. Bannwarth, S. Ehlert and S. Grimme., J. Chem. Theory Comput., 2019,
     15, 1652-1671. DOI: 10.1021/acs.jctc.8b01176
   for GFN1-xTB:
   * S. Grimme, C. Bannwarth, P. Shushkov, J. Chem. Theory Comput., 2017,
     13, 1989-2009. DOI: 10.1021/acs.jctc.7b00118
   for GFN0-xTB:
   * P. Pracht, E. Caldeweyher, S. Ehlert, S. Grimme, ChemRxiv, 2019, preprint.
     DOI: 10.26434/chemrxiv.8326202.v1
   for GFN-FF:
   * S. Spicher and S. Grimme, Angew. Chem. Int. Ed., 2020, 59, 15665-15673.
     DOI: 10.1002/anie.202004239
   
   for ALPB and GBSA implicit solvation:
   * S. Ehlert, M. Stahn, S. Spicher, S. Grimme, J. Chem. Theory Comput.,
     2021, 17, 4250-4261. DOI: 10.1021/acs.jctc.1c00471
   
   for ddCOSMO and CPCM-X implicit solvation:
   * M. Stahn, S. Ehlert, S. Grimme, J. Phys. Chem. A,
     2023, XX, XXXX-XXXX. DOI: 10.1021/acs.jpca.3c04382
   
   for DFT-D4:
   * E. Caldeweyher, C. Bannwarth and S. Grimme, J. Chem. Phys., 2017,
     147, 034112. DOI: 10.1063/1.4993215
   * E. Caldeweyher, S. Ehlert, A. Hansen, H. Neugebauer, S. Spicher,
     C. Bannwarth and S. Grimme, J. Chem. Phys., 2019, 150, 154122.
     DOI: 10.1063/1.5090222
   * E. Caldeweyher, J.-M. Mewes, S. Ehlert and S. Grimme, Phys. Chem. Chem. Phys.
     2020, 22, 8499-8512. DOI: 10.1039/D0CP00502A
   
   for sTDA-xTB:
   * S. Grimme and C. Bannwarth, J. Chem. Phys., 2016, 145, 054103.
     DOI: 10.1063/1.4959605
   
   in the mass-spec context:
   * V. Asgeirsson, C. Bauer and S. Grimme, Chem. Sci., 2017, 8, 4879.
     DOI: 10.1039/c7sc00601b
   * J. Koopman and S. Grimme, ACS Omega 2019, 4, 12, 15120-15133.
     DOI: 10.1021/acsomega.9b02011
   
   for metadynamics refer to:
   * S. Grimme, J. Chem. Theory Comput., 2019, 155, 2847-2862
     DOI: 10.1021/acs.jctc.9b00143
   
   for SPH calculations refer to:
   * S. Spicher and S. Grimme, J. Chem. Theory Comput., 2021, 17, 1701-1714
     DOI: 10.1021/acs.jctc.0c01306
   
   for ONIOM refer to:
   * C. Plett, A. Katbashev, S. Ehlert, S. Grimme, M. Bursch,
     Phys. Chem. Chem. Phys., 2023, 25, 17860-17868. DOI: 10.1039/D3CP02178E
   
   for DIPRO refer to:
   * J. Kohn, N. Gildemeister, S. Grimme, D. Fazzi, A. Hansen,
     J. Chem. Phys., 2023, just accepted.
   
   for PTB refer to:
   * S. Grimme, M. Mueller, A. Hansen, J. Chem. Phys., 2023, 158, 124111.
     DOI: 10.1063/5.0137838
   
   with help from (in alphabetical order)
   P. Atkinson, C. Bannwarth, F. Bohle, G. Brandenburg, E. Caldeweyher
   M. Checinski, S. Dohm, S. Ehlert, S. Ehrlich, I. Gerasimov, C. Hölzer
   A. Katbashev, J. Kohn, J. Koopman, C. Lavigne, S. Lehtola, F. März, M. Müller,
   F. Musil, H. Neugebauer, J. Pisarek, C. Plett, P. Pracht, F. Pultar,
   J. Seibert, P. Shushkov, S. Spicher, M. Stahn, M. Steiner, T. Strunk,
   J. Stückrath, T. Rose, and J. Unsleber
   
 * started run on 2024/12/16 at 16:24:30.579     
   ID    Z sym.   atoms
    1    6 C      1-3, 5-14, 18-24, 29-49, 51
    2    7 N      4, 28, 50
    3   15 P      15
    4   16 S      16, 17
    5    9 F      25-27
    6    1 H      52-91

           -------------------------------------------------
          |                Calculation Setup                |
           -------------------------------------------------

          program call               : xtb --gfn2 --opt extreme -P 8 --charge 1 molecule.xyz
          hostname                   : node05
          coordinate file            : molecule.xyz
          omp threads                :                     8


           -------------------------------------------------
          |                 G F N 2 - x T B                 |
           -------------------------------------------------

        Reference                      10.1021/acs.jctc.8b01176
      * Hamiltonian:
        H0-scaling (s, p, d)           1.850000    2.230000    2.230000
        zeta-weighting                 0.500000
      * Dispersion:
        s8                             2.700000
        a1                             0.520000
        a2                             5.000000
        s9                             5.000000
      * Repulsion:
        kExp                           1.500000    1.000000
        rExp                           1.000000
      * Coulomb:
        alpha                          2.000000
        third order                    shell-resolved
        anisotropic                    true
        a3                             3.000000
        a5                             4.000000
        cn-shift                       1.200000
        cn-exp                         4.000000
        max-rad                        5.000000


          ...................................................
          :                      SETUP                      :
          :.................................................:
          :  # basis functions                 262          :
          :  # atomic orbitals                 259          :
          :  # shells                          145          :
          :  # electrons                       260          :
          :  max. iterations                   250          :
          :  Hamiltonian                  GFN2-xTB          :
          :  restarted?                      false          :
          :  GBSA solvation                  false          :
          :  PC potential                    false          :
          :  electronic temp.          300.0000000     K    :
          :  accuracy                    1.0000000          :
          :  -> integral cutoff          0.2500000E+02      :
          :  -> integral neglect         0.1000000E-07      :
          :  -> SCF convergence          0.1000000E-05 Eh   :
          :  -> wf. convergence          0.1000000E-03 e    :
          :  Broyden damping             0.4000000          :
          :  net charge                          1          :
          :  unpaired electrons                  0          :
          ...................................................

 iter      E             dE          RMSdq      gap      omega  full diag
   1   -143.8230551 -0.143823E+03  0.423E+00    1.73       0.0  T
   2   -144.0251084 -0.202053E+00  0.253E+00    1.89       1.0  T
   3   -144.0019425  0.231659E-01  0.125E+00    1.63       1.0  T
   4   -144.0304030 -0.284604E-01  0.599E-01    1.31       1.0  T
   5   -144.0551786 -0.247757E-01  0.252E-01    1.43       1.0  T
   6   -144.0574680 -0.228935E-02  0.132E-01    1.41       1.0  T
   7   -144.0591107 -0.164266E-02  0.410E-02    1.42       1.0  T
   8   -144.0591494 -0.387704E-04  0.192E-02    1.43       1.0  T
   9   -144.0591545 -0.511731E-05  0.868E-03    1.43       1.2  T
  10   -144.0591555 -0.916453E-06  0.453E-03    1.43       2.3  T
  11   -144.0591559 -0.479718E-06  0.222E-03    1.43       4.7  T
  12   -144.0591561 -0.138573E-06  0.128E-03    1.43       8.2  T
  13   -144.0591561 -0.253907E-07  0.708E-04    1.43      14.8  T
  14   -144.0591561 -0.109429E-07  0.349E-04    1.43      30.0  T

   *** convergence criteria satisfied after 14 iterations ***

         #    Occupation            Energy/Eh            Energy/eV
      -------------------------------------------------------------
         1        2.0000           -0.9560540             -26.0156
       ...           ...                  ...                  ...
       124        2.0000           -0.4968170             -13.5191
       125        2.0000           -0.4897631             -13.3271
       126        2.0000           -0.4876325             -13.2692
       127        2.0000           -0.4822487             -13.1227
       128        2.0000           -0.4768915             -12.9769
       129        2.0000           -0.4710895             -12.8190
       130        2.0000           -0.4570954             -12.4382 (HOMO)
       131                         -0.4046843             -11.0120 (LUMO)
       132                         -0.3744558             -10.1895
       133                         -0.3698882             -10.0652
       134                         -0.3596612              -9.7869
       135                         -0.3545781              -9.6486
       ...                                ...                  ...
       259                          1.0278821              27.9701
      -------------------------------------------------------------
                  HL-Gap            0.0524110 Eh            1.4262 eV
             Fermi-level           -0.4308899 Eh          -11.7251 eV

 SCC (total)                   0 d,  0 h,  0 min,  2.811 sec
 SCC setup                      ...        0 min,  0.005 sec (  0.180%)
 Dispersion                     ...        0 min,  0.019 sec (  0.672%)
 classical contributions        ...        0 min,  0.009 sec (  0.329%)
 integral evaluation            ...        0 min,  0.034 sec (  1.207%)
 iterations                     ...        0 min,  2.618 sec ( 93.138%)
 molecular gradient             ...        0 min,  0.121 sec (  4.292%)
 printout                       ...        0 min,  0.005 sec (  0.181%)

         :::::::::::::::::::::::::::::::::::::::::::::::::::::
         ::                     SUMMARY                     ::
         :::::::::::::::::::::::::::::::::::::::::::::::::::::
         :: total energy            -142.044740183112 Eh    ::
         :: gradient norm              0.140952163085 Eh/a0 ::
         :: HOMO-LUMO gap              1.426177158900 eV    ::
         ::.................................................::
         :: SCC energy              -144.052375308748 Eh    ::
         :: -> isotropic ES            0.122244709613 Eh    ::
         :: -> anisotropic ES          0.003655100787 Eh    ::
         :: -> anisotropic XC          0.059889351913 Eh    ::
         :: -> dispersion             -0.144965671753 Eh    ::
         :: repulsion energy           2.007635125636 Eh    ::
         :: add. restraining           0.000000000000 Eh    ::
         :: total charge               1.000000000000 e     ::
         :::::::::::::::::::::::::::::::::::::::::::::::::::::

      ----------------------------------------------------------- 
     |                   =====================                   |
     |                        A N C O P T                        |
     |                   =====================                   |
     |               Approximate Normal Coordinate               |
     |                Rational Function Optimizer                |
      ----------------------------------------------------------- 
      ----------------------------------------------------------- 
     |                   =====================                   |
     |                        A N C O P T                        |
     |                   =====================                   |
     |               Approximate Normal Coordinate               |
     |                Rational Function Optimizer                |
      ----------------------------------------------------------- 

          ...................................................
          :                      SETUP                      :
          :.................................................:
          :   optimization level           extreme          :
          :   max. optcycles                  1820          :
          :   ANC micro-cycles                  20          :
          :   degrees of freedom               267          :
          :.................................................:
          :   RF solver                   davidson          :
          :   write xtbopt.log                true          :
          :   linear?                        false          :
          :   energy convergence         0.5000000E-07 Eh   :
          :   grad. convergence          0.5000000E-04 Eh/α :
          :   maxmium RF displ.          1.0000000          :
          :   Hlow (freq-cutoff)         0.1000000E-01      :
          :   Hmax (freq-cutoff)         5.0000000          :
          :   S6 in model hess.         20.0000000          :
          ...................................................

generating ANC from exact Hessian ...
Using Lindh-Hessian (1995)
 Shifting diagonal of input Hessian by    9.9143557784906241E-003
 Lowest  eigenvalues of input Hessian
    0.000000    0.000000    0.000000    0.000000    0.000000    0.000000
    0.010000    0.010054    0.010102    0.010162    0.010176    0.010262
    0.010493    0.010524    0.010812    0.010977    0.011230    0.011414
 Highest eigenvalues
    1.928328    1.938699    1.992410    2.028860    2.068754    2.073741


........................................................................
.............................. CYCLE    1 ..............................
........................................................................

 iter      E             dE          RMSdq      gap      omega  full diag
   1   -144.0591561 -0.144059E+03  0.209E-04    1.43       0.0  T
   2   -144.0591561 -0.461597E-09  0.157E-04    1.43      66.8  T
   3   -144.0591561 -0.464951E-09  0.119E-04    1.43      88.4  T
     SCC iter.                  ...        0 min,  0.307 sec
     gradient                   ...        0 min,  0.152 sec
 * total energy  :  -142.0447402 Eh     change       -0.2127791E-08 Eh
   gradient norm :     0.1409537 Eh/α   predicted     0.0000000E+00 (-100.00%)
   displ. norm   :     0.4207977 α      lambda       -0.3171304E-01
   maximum displ.:     0.1241224 α      in ANC's #57, #76, #92, ...

........................................................................
.............................. CYCLE    2 ..............................
........................................................................

 iter      E             dE          RMSdq      gap      omega  full diag
   1   -144.1426353 -0.144143E+03  0.254E-01    1.53       0.0  T
   2   -144.1428383 -0.202952E-03  0.135E-01    1.61       1.0  T
   3   -144.1427575  0.807494E-04  0.489E-02    1.65       1.0  T
   4   -144.1428635 -0.105996E-03  0.215E-02    1.65       1.0  T
   5   -144.1428810 -0.175205E-04  0.113E-02    1.65       1.0  T
   6   -144.1428881 -0.704803E-05  0.494E-03    1.65       2.1  T
   7   -144.1428888 -0.752646E-06  0.319E-03    1.65       3.3  T
   8   -144.1428890 -0.205916E-06  0.182E-03    1.65       5.8  T
   9   -144.1428891 -0.446951E-07  0.926E-04    1.65      11.3  T
  10   -144.1428891 -0.856403E-08  0.417E-04    1.65      25.2  T
     SCC iter.                  ...        0 min,  1.089 sec
     gradient                   ...        0 min,  0.117 sec
 * total energy  :  -142.0672139 Eh     change       -0.2247370E-01 Eh
   gradient norm :     0.0616964 Eh/α   predicted    -0.1869620E-01 ( -16.81%)
   displ. norm   :     0.4368686 α      lambda       -0.1190176E-01
   maximum displ.:     0.1378115 α      in ANC's #57, #19, #9, ...

........................................................................
.............................. CYCLE    3 ..............................
........................................................................

 iter      E             dE          RMSdq      gap      omega  full diag
   1   -144.1941466 -0.144194E+03  0.194E-01    1.78       0.0  T
   2   -144.1942435 -0.969035E-04  0.102E-01    1.82       1.0  T
   3   -144.1942020  0.414803E-04  0.367E-02    1.85       1.0  T
   4   -144.1942611 -0.591203E-04  0.138E-02    1.85       1.0  T
   5   -144.1942662 -0.505823E-05  0.720E-03    1.85       1.5  T
   6   -144.1942692 -0.304241E-05  0.300E-03    1.85       3.5  T
   7   -144.1942696 -0.359037E-06  0.182E-03    1.85       5.8  T
   8   -144.1942696 -0.569157E-07  0.985E-04    1.85      10.6  T
   9   -144.1942696 -0.185036E-07  0.560E-04    1.85      18.7  T
     SCC iter.                  ...        0 min,  0.890 sec
     gradient                   ...        0 min,  0.116 sec
 * total energy  :  -142.0746073 Eh     change       -0.7393412E-02 Eh
   gradient norm :     0.0148535 Eh/α   predicted    -0.7086632E-02 (  -4.15%)
   displ. norm   :     0.4113942 α      lambda       -0.2896850E-02
   maximum displ.:     0.1756241 α      in ANC's #9, #19, #14, ...

........................................................................
.............................. CYCLE    4 ..............................
........................................................................

 iter      E             dE          RMSdq      gap      omega  full diag
   1   -144.2017798 -0.144202E+03  0.989E-02    1.90       0.0  T
   2   -144.2018061 -0.263168E-04  0.544E-02    1.92       1.0  T
   3   -144.2017914  0.147037E-04  0.197E-02    1.93       1.0  T
   4   -144.2018095 -0.180700E-04  0.734E-03    1.93       1.4  T
   5   -144.2018124 -0.295889E-05  0.327E-03    1.93       3.2  T
   6   -144.2018129 -0.485413E-06  0.167E-03    1.93       6.3  T
   7   -144.2018131 -0.130786E-06  0.655E-04    1.93      16.0  T
   8   -144.2018131 -0.263801E-07  0.293E-04    1.93      35.8  T
     SCC iter.                  ...        0 min,  1.381 sec
     gradient                   ...        0 min,  0.115 sec
 * total energy  :  -142.0767642 Eh     change       -0.2156925E-02 Eh
   gradient norm :     0.0129415 Eh/α   predicted    -0.1693596E-02 ( -21.48%)
   displ. norm   :     0.5245472 α      lambda       -0.2342047E-02
   maximum displ.:     0.2430486 α      in ANC's #9, #19, #12, ...

........................................................................
.............................. CYCLE    5 ..............................
........................................................................

 iter      E             dE          RMSdq      gap      omega  full diag
   1   -144.2059359 -0.144206E+03  0.907E-02    1.96       0.0  T
   2   -144.2059526 -0.166787E-04  0.527E-02    1.96       1.0  T
   3   -144.2059373  0.152903E-04  0.202E-02    1.96       1.0  T
   4   -144.2059577 -0.204062E-04  0.524E-03    1.96       2.0  T
   5   -144.2059580 -0.314280E-06  0.304E-03    1.96       3.4  T
   6   -144.2059585 -0.446158E-06  0.123E-03    1.96       8.5  T
   7   -144.2059585 -0.284400E-07  0.763E-04    1.96      13.7  T
   8   -144.2059585 -0.206994E-07  0.392E-04    1.96      26.7  T
     SCC iter.                  ...        0 min,  0.993 sec
     gradient                   ...        0 min,  0.116 sec
 * total energy  :  -142.0784319 Eh     change       -0.1667688E-02 Eh
   gradient norm :     0.0111258 Eh/α   predicted    -0.1493231E-02 ( -10.46%)
   displ. norm   :     0.4979797 α      lambda       -0.1474812E-02
   maximum displ.:     0.2459664 α      in ANC's #9, #19, #12, ...

........................................................................
.............................. CYCLE    6 ..............................
........................................................................

 iter      E             dE          RMSdq      gap      omega  full diag
   1   -144.2071381 -0.144207E+03  0.945E-02    1.97       0.0  T
   2   -144.2071576 -0.195031E-04  0.478E-02    1.97       1.0  T
   3   -144.2071543  0.326781E-05  0.148E-02    1.97       1.0  T
   4   -144.2071571 -0.284825E-05  0.795E-03    1.98       1.3  T
   5   -144.2071605 -0.340120E-05  0.260E-03    1.97       4.0  T
   6   -144.2071607 -0.200277E-06  0.127E-03    1.97       8.3  T
   7   -144.2071608 -0.107147E-06  0.552E-04    1.97      19.0  T
   8   -144.2071609 -0.639062E-08  0.326E-04    1.97      32.2  T
     SCC iter.                  ...        0 min,  1.186 sec
     gradient                   ...        0 min,  0.120 sec
 * total energy  :  -142.0794433 Eh     change       -0.1011416E-02 Eh
   gradient norm :     0.0076929 Eh/α   predicted    -0.9202783E-03 (  -9.01%)
   displ. norm   :     0.4253558 α      lambda       -0.8856504E-03
   maximum displ.:     0.2047398 α      in ANC's #9, #19, #10, ...

........................................................................
.............................. CYCLE    7 ..............................
........................................................................

 iter      E             dE          RMSdq      gap      omega  full diag
   1   -144.2097014 -0.144210E+03  0.803E-02    1.97       0.0  T
   2   -144.2097074 -0.598195E-05  0.433E-02    1.97       1.0  T
   3   -144.2097038  0.358218E-05  0.109E-02    1.97       1.0  T
   4   -144.2097074 -0.359890E-05  0.573E-03    1.97       1.8  T
   5   -144.2097089 -0.141026E-05  0.219E-03    1.97       4.8  T
   6   -144.2097092 -0.372125E-06  0.861E-04    1.97      12.2  T
   7   -144.2097093 -0.261174E-07  0.487E-04    1.97      21.5  T
     SCC iter.                  ...        0 min,  0.879 sec
     gradient                   ...        0 min,  0.117 sec
 * total energy  :  -142.0800420 Eh     change       -0.5987136E-03 Eh
   gradient norm :     0.0067403 Eh/α   predicted    -0.5229467E-03 ( -12.65%)
   displ. norm   :     0.3257369 α      lambda       -0.4522784E-03
   maximum displ.:     0.1399474 α      in ANC's #9, #5, #10, ...

........................................................................
.............................. CYCLE    8 ..............................
........................................................................

 iter      E             dE          RMSdq      gap      omega  full diag
   1   -144.2124468 -0.144212E+03  0.588E-02    1.97       0.0  T
   2   -144.2124501 -0.330160E-05  0.317E-02    1.97       1.0  T
   3   -144.2124480  0.211983E-05  0.860E-03    1.97       1.2  T
   4   -144.2124503 -0.232005E-05  0.378E-03    1.97       2.8  T
   5   -144.2124510 -0.661406E-06  0.144E-03    1.97       7.3  T
   6   -144.2124511 -0.131427E-06  0.581E-04    1.97      18.0  T
   7   -144.2124511 -0.180855E-07  0.323E-04    1.97      32.4  T
     SCC iter.                  ...        0 min,  0.819 sec
     gradient                   ...        0 min,  0.149 sec
 * total energy  :  -142.0803596 Eh     change       -0.3175877E-03 Eh
   gradient norm :     0.0051156 Eh/α   predicted    -0.2501339E-03 ( -21.24%)
   displ. norm   :     0.2806761 α      lambda       -0.2870458E-03
   maximum displ.:     0.1271096 α      in ANC's #5, #10, #15, ...

........................................................................
.............................. CYCLE    9 ..............................
........................................................................

 iter      E             dE          RMSdq      gap      omega  full diag
   1   -144.2132672 -0.144213E+03  0.490E-02    1.97       0.0  T
   2   -144.2132693 -0.206769E-05  0.268E-02    1.97       1.0  T
   3   -144.2132669  0.236861E-05  0.776E-03    1.97       1.4  T
   4   -144.2132697 -0.279994E-05  0.333E-03    1.97       3.1  T
   5   -144.2132701 -0.335475E-06  0.104E-03    1.97      10.1  T
   6   -144.2132702 -0.859219E-07  0.424E-04    1.97      24.8  T
   7   -144.2132702 -0.115273E-07  0.210E-04    1.97      50.0  T
     SCC iter.                  ...        0 min,  0.921 sec
     gradient                   ...        0 min,  0.121 sec
 * total energy  :  -142.0805690 Eh     change       -0.2093465E-03 Eh
   gradient norm :     0.0035291 Eh/α   predicted    -0.1548596E-03 ( -26.03%)
   displ. norm   :     0.2765265 α      lambda       -0.2299153E-03
   maximum displ.:     0.1412018 α      in ANC's #5, #15, #10, ...

........................................................................
.............................. CYCLE   10 ..............................
........................................................................

 iter      E             dE          RMSdq      gap      omega  full diag
   1   -144.2137947 -0.144214E+03  0.404E-02    1.98       0.0  T
   2   -144.2137957 -0.100105E-05  0.234E-02    1.98       1.0  T
   3   -144.2137932  0.245686E-05  0.619E-03    1.98       1.7  T
   4   -144.2137961 -0.286132E-05  0.172E-03    1.98       6.1  T
   5   -144.2137962 -0.127759E-06  0.842E-04    1.98      12.4  T
   6   -144.2137962 -0.159439E-07  0.474E-04    1.98      22.1  T
     SCC iter.                  ...        0 min,  0.859 sec
     gradient                   ...        0 min,  0.119 sec
 * total energy  :  -142.0807430 Eh     change       -0.1739916E-03 Eh
   gradient norm :     0.0035578 Eh/α   predicted    -0.1237510E-03 ( -28.88%)
   displ. norm   :     0.2944541 α      lambda       -0.2073510E-03
   maximum displ.:     0.1601468 α      in ANC's #5, #15, #6, ...

........................................................................
.............................. CYCLE   11 ..............................
........................................................................

 iter      E             dE          RMSdq      gap      omega  full diag
   1   -144.2129118 -0.144213E+03  0.438E-02    1.98       0.0  T
   2   -144.2129125 -0.768387E-06  0.252E-02    1.98       1.0  T
   3   -144.2129090  0.351313E-05  0.643E-03    1.98       1.6  T
   4   -144.2129130 -0.396257E-05  0.178E-03    1.98       5.9  T
   5   -144.2129131 -0.959143E-07  0.888E-04    1.98      11.8  T
   6   -144.2129131 -0.586713E-07  0.319E-04    1.98      32.9  T
     SCC iter.                  ...        0 min,  0.609 sec
     gradient                   ...        0 min,  0.115 sec
 * total energy  :  -142.0809043 Eh     change       -0.1613116E-03 Eh
   gradient norm :     0.0044582 Eh/α   predicted    -0.1126662E-03 ( -30.16%)
   displ. norm   :     0.3086314 α      lambda       -0.1893704E-03
   maximum displ.:     0.1749255 α      in ANC's #5, #6, #15, ...

........................................................................
.............................. CYCLE   12 ..............................
........................................................................

 iter      E             dE          RMSdq      gap      omega  full diag
   1   -144.2123886 -0.144212E+03  0.481E-02    1.99       0.0  T
   2   -144.2123896 -0.101405E-05  0.277E-02    1.99       1.0  T
   3   -144.2123864  0.317276E-05  0.672E-03    1.99       1.6  T
   4   -144.2123898 -0.341467E-05  0.246E-03    1.99       4.3  T
   5   -144.2123902 -0.309156E-06  0.101E-03    1.99      10.4  T
   6   -144.2123902 -0.767897E-07  0.382E-04    1.99      27.5  T
   7   -144.2123902 -0.718791E-08  0.174E-04    1.99      60.2  T
     SCC iter.                  ...        0 min,  1.213 sec
     gradient                   ...        0 min,  0.118 sec
 * total energy  :  -142.0810522 Eh     change       -0.1479377E-03 Eh
   gradient norm :     0.0043122 Eh/α   predicted    -0.1037103E-03 ( -29.90%)
   displ. norm   :     0.3043251 α      lambda       -0.1603974E-03
   maximum displ.:     0.1810425 α      in ANC's #5, #6, #8, ...

........................................................................
.............................. CYCLE   13 ..............................
........................................................................

 iter      E             dE          RMSdq      gap      omega  full diag
   1   -144.2120430 -0.144212E+03  0.492E-02    1.99       0.0  T
   2   -144.2120439 -0.809533E-06  0.287E-02    1.99       1.0  T
   3   -144.2120405  0.340183E-05  0.652E-03    1.99       1.6  T
   4   -144.2120443 -0.382336E-05  0.176E-03    1.99       5.9  T
   5   -144.2120444 -0.121967E-06  0.869E-04    1.99      12.1  T
   6   -144.2120444 -0.497307E-07  0.375E-04    1.99      28.0  T
     SCC iter.                  ...        0 min,  0.609 sec
     gradient                   ...        0 min,  0.115 sec
 * total energy  :  -142.0811777 Eh     change       -0.1254522E-03 Eh
   gradient norm :     0.0030214 Eh/α   predicted    -0.8762794E-04 ( -30.15%)
   displ. norm   :     0.2819381 α      lambda       -0.1294510E-03
   maximum displ.:     0.1739873 α      in ANC's #5, #6, #8, ...

........................................................................
.............................. CYCLE   14 ..............................
........................................................................

 iter      E             dE          RMSdq      gap      omega  full diag
   1   -144.2126091 -0.144213E+03  0.465E-02    2.00       0.0  T
   2   -144.2126099 -0.813855E-06  0.272E-02    2.00       1.0  T
   3   -144.2126078  0.208936E-05  0.559E-03    2.00       1.9  T
   4   -144.2126102 -0.238071E-05  0.172E-03    2.00       6.1  T
   5   -144.2126103 -0.111244E-06  0.852E-04    2.00      12.3  T
   6   -144.2126104 -0.511935E-07  0.379E-04    2.00      27.6  T
     SCC iter.                  ...        0 min,  1.044 sec
     gradient                   ...        0 min,  0.119 sec
 * total energy  :  -142.0812804 Eh     change       -0.1027337E-03 Eh
   gradient norm :     0.0022520 Eh/α   predicted    -0.6987288E-04 ( -31.99%)
   displ. norm   :     0.2718791 α      lambda       -0.1119948E-03
   maximum displ.:     0.1709669 α      in ANC's #5, #6, #8, ...

........................................................................
.............................. CYCLE   15 ..............................
........................................................................

 iter      E             dE          RMSdq      gap      omega  full diag
   1   -144.2133876 -0.144213E+03  0.446E-02    2.00       0.0  T
   2   -144.2133882 -0.656782E-06  0.261E-02    2.00       1.0  T
   3   -144.2133869  0.137904E-05  0.449E-03    2.00       2.3  T
   4   -144.2133885 -0.163799E-05  0.137E-03    2.00       7.7  T
   5   -144.2133886 -0.622599E-07  0.718E-04    2.00      14.6  T
   6   -144.2133886 -0.281958E-07  0.369E-04    2.00      28.4  T
     SCC iter.                  ...        0 min,  0.496 sec
     gradient                   ...        0 min,  0.117 sec
 * total energy  :  -142.0813710 Eh     change       -0.9057501E-04 Eh
   gradient norm :     0.0029257 Eh/α   predicted    -0.6013774E-04 ( -33.60%)
   displ. norm   :     0.2796008 α      lambda       -0.1057173E-03
   maximum displ.:     0.1760235 α      in ANC's #5, #6, #8, ...

........................................................................
.............................. CYCLE   16 ..............................
........................................................................

 iter      E             dE          RMSdq      gap      omega  full diag
   1   -144.2141335 -0.144214E+03  0.453E-02    2.01       0.0  T
   2   -144.2141341 -0.641119E-06  0.266E-02    2.01       1.0  T
   3   -144.2141330  0.106491E-05  0.402E-03    2.01       2.6  T
   4   -144.2141344 -0.132340E-05  0.126E-03    2.01       8.3  T
   5   -144.2141344 -0.456708E-07  0.629E-04    2.01      16.7  T
   6   -144.2141344 -0.171923E-07  0.343E-04    2.01      30.5  T
     SCC iter.                  ...        0 min,  0.725 sec
     gradient                   ...        0 min,  0.117 sec
 * total energy  :  -142.0814571 Eh     change       -0.8615450E-04 Eh
   gradient norm :     0.0033886 Eh/α   predicted    -0.5699223E-04 ( -33.85%)
   displ. norm   :     0.2913674 α      lambda       -0.9959286E-04
   maximum displ.:     0.1831655 α      in ANC's #5, #6, #8, ...

........................................................................
.............................. CYCLE   17 ..............................
........................................................................

 iter      E             dE          RMSdq      gap      omega  full diag
   1   -144.2144895 -0.144214E+03  0.467E-02    2.01       0.0  T
   2   -144.2144901 -0.586330E-06  0.274E-02    2.01       1.0  T
   3   -144.2144890  0.109470E-05  0.389E-03    2.01       2.7  T
   4   -144.2144904 -0.138099E-05  0.107E-03    2.01       9.8  T
   5   -144.2144904 -0.252639E-07  0.543E-04    2.01      19.3  T
   6   -144.2144904 -0.938115E-08  0.295E-04    2.01      35.5  T
     SCC iter.                  ...        0 min,  0.697 sec
     gradient                   ...        0 min,  0.116 sec
 * total energy  :  -142.0815381 Eh     change       -0.8091811E-04 Eh
   gradient norm :     0.0029584 Eh/α   predicted    -0.5402507E-04 ( -33.23%)
   displ. norm   :     0.2936021 α      lambda       -0.8989772E-04
   maximum displ.:     0.1838830 α      in ANC's #5, #6, #8, ...

........................................................................
.............................. CYCLE   18 ..............................
........................................................................

 iter      E             dE          RMSdq      gap      omega  full diag
   1   -144.2146102 -0.144215E+03  0.469E-02    2.02       0.0  T
   2   -144.2146107 -0.513661E-06  0.275E-02    2.02       1.0  T
   3   -144.2146096  0.105187E-05  0.373E-03    2.02       2.8  T
   4   -144.2146110 -0.133173E-05  0.932E-04    2.02      11.2  T
   5   -144.2146110 -0.125868E-07  0.484E-04    2.02      21.7  T
   6   -144.2146110 -0.837204E-08  0.239E-04    2.02      43.8  T
     SCC iter.                  ...        0 min,  0.517 sec
     gradient                   ...        0 min,  0.115 sec
 * total energy  :  -142.0816113 Eh     change       -0.7321216E-04 Eh
   gradient norm :     0.0021255 Eh/α   predicted    -0.4882793E-04 ( -33.31%)
   displ. norm   :     0.3045317 α      lambda       -0.8523169E-04
   maximum displ.:     0.1888407 α      in ANC's #5, #6, #8, ...

........................................................................
.............................. CYCLE   19 ..............................
........................................................................

 iter      E             dE          RMSdq      gap      omega  full diag
   1   -144.2145492 -0.144215E+03  0.481E-02    2.02       0.0  T
   2   -144.2145497 -0.520217E-06  0.282E-02    2.02       1.0  T
   3   -144.2145487  0.102486E-05  0.371E-03    2.02       2.8  T
   4   -144.2145500 -0.129927E-05  0.994E-04    2.02      10.5  T
   5   -144.2145500 -0.118615E-07  0.517E-04    2.02      20.3  T
   6   -144.2145501 -0.150039E-07  0.241E-04    2.02      43.6  T
     SCC iter.                  ...        0 min,  0.518 sec
     gradient                   ...        0 min,  0.117 sec
 * total energy  :  -142.0816819 Eh     change       -0.7059560E-04 Eh
   gradient norm :     0.0020207 Eh/α   predicted    -0.4656983E-04 ( -34.03%)
   displ. norm   :     0.3449137 α      lambda       -0.9239020E-04
   maximum displ.:     0.2101323 α      in ANC's #5, #6, #8, ...

........................................................................
.............................. CYCLE   20 ..............................
........................................................................

 iter      E             dE          RMSdq      gap      omega  full diag
   1   -144.2143628 -0.144214E+03  0.540E-02    2.03       0.0  T
   2   -144.2143635 -0.705630E-06  0.315E-02    2.03       1.0  T
   3   -144.2143623  0.120441E-05  0.419E-03    2.03       2.5  T
   4   -144.2143638 -0.147121E-05  0.148E-03    2.03       7.1  T
   5   -144.2143638 -0.735347E-07  0.668E-04    2.03      15.7  T
   6   -144.2143639 -0.309718E-07  0.314E-04    2.03      33.4  T
     SCC iter.                  ...        0 min,  0.741 sec
     gradient                   ...        0 min,  0.118 sec
 * total energy  :  -142.0817590 Eh     change       -0.7713298E-04 Eh
   gradient norm :     0.0027072 Eh/α   predicted    -0.5169259E-04 ( -32.98%)
   displ. norm   :     0.4005134 α      lambda       -0.1033562E-03
   maximum displ.:     0.2397439 α      in ANC's #5, #6, #8, ...
 * RMSD in coord.:     0.5120548 α      energy gain  -0.3701881E-01 Eh

generating ANC from exact Hessian ...
Using Lindh-Hessian (1995)
 Shifting diagonal of input Hessian by    9.9109765772978486E-003
 Lowest  eigenvalues of input Hessian
    0.000000    0.000000    0.000000    0.000000    0.000000    0.000000
    0.010000    0.010085    0.010105    0.010180    0.010247    0.010306
    0.010549    0.010608    0.010644    0.011119    0.011239    0.011586
 Highest eigenvalues
    2.008240    2.019027    2.026893    2.074612    2.115645    2.125687


........................................................................
.............................. CYCLE   21 ..............................
........................................................................

 iter      E             dE          RMSdq      gap      omega  full diag
   1   -144.2140054 -0.144214E+03  0.624E-02    2.03       0.0  T
   2   -144.2140065 -0.107476E-05  0.363E-02    2.03       1.0  T
   3   -144.2140048  0.166532E-05  0.515E-03    2.03       2.0  T
   4   -144.2140066 -0.181391E-05  0.229E-03    2.03       4.6  T
   5   -144.2140069 -0.297089E-06  0.887E-04    2.03      11.8  T
   6   -144.2140070 -0.586791E-07  0.412E-04    2.03      25.5  T
     SCC iter.                  ...        0 min,  0.644 sec
     gradient                   ...        0 min,  0.115 sec
 * total energy  :  -142.0818441 Eh     change       -0.8514144E-04 Eh
   gradient norm :     0.0031839 Eh/α   predicted     0.0000000E+00 (-100.00%)
   displ. norm   :     0.0400203 α      lambda       -0.2401981E-04
   maximum displ.:     0.0182986 α      in ANC's #9, #1, #6, ...

........................................................................
.............................. CYCLE   22 ..............................
........................................................................

 iter      E             dE          RMSdq      gap      omega  full diag
   1   -144.2148215 -0.144215E+03  0.993E-03    2.03       0.0  T
   2   -144.2148216 -0.733412E-07  0.556E-03    2.03       1.9  T
   3   -144.2148215  0.950606E-07  0.142E-03    2.03       7.4  T
   4   -144.2148216 -0.908164E-07  0.668E-04    2.03      15.7  T
   5   -144.2148216 -0.233429E-07  0.261E-04    2.03      40.2  T
     SCC iter.                  ...        0 min,  0.559 sec
     gradient                   ...        0 min,  0.116 sec
 * total energy  :  -142.0818717 Eh     change       -0.2757756E-04 Eh
   gradient norm :     0.0018632 Eh/α   predicted    -0.1601368E-04 ( -41.93%)
   displ. norm   :     0.2183922 α      lambda       -0.8018527E-04
   maximum displ.:     0.0991780 α      in ANC's #9, #1, #6, ...

........................................................................
.............................. CYCLE   23 ..............................
........................................................................

 iter      E             dE          RMSdq      gap      omega  full diag
   1   -144.2162113 -0.144216E+03  0.475E-02    2.03       0.0  T
   2   -144.2162126 -0.128028E-05  0.270E-02    2.03       1.0  T
   3   -144.2162107  0.189251E-05  0.602E-03    2.03       1.7  T
   4   -144.2162126 -0.189663E-05  0.258E-03    2.03       4.1  T
   5   -144.2162129 -0.347747E-06  0.107E-03    2.03       9.8  T
   6   -144.2162130 -0.866853E-07  0.428E-04    2.03      24.5  T
   7   -144.2162130 -0.121388E-07  0.175E-04    2.03      59.9  T
     SCC iter.                  ...        0 min,  0.710 sec
     gradient                   ...        0 min,  0.115 sec
 * total energy  :  -142.0819253 Eh     change       -0.5354980E-04 Eh
   gradient norm :     0.0034983 Eh/α   predicted    -0.4094286E-04 ( -23.54%)
   displ. norm   :     0.0358142 α      lambda       -0.1886986E-04
   maximum displ.:     0.0172427 α      in ANC's #1, #6, #9, ...

........................................................................
.............................. CYCLE   24 ..............................
........................................................................

 iter      E             dE          RMSdq      gap      omega  full diag
   1   -144.2157192 -0.144216E+03  0.605E-03    2.03       0.0  T
   2   -144.2157192 -0.297340E-07  0.355E-03    2.03       3.0  T
   3   -144.2157192  0.230895E-07  0.682E-04    2.03      15.4  T
   4   -144.2157192 -0.283223E-07  0.232E-04    2.03      45.2  T
     SCC iter.                  ...        0 min,  0.615 sec
     gradient                   ...        0 min,  0.163 sec
 * total energy  :  -142.0819425 Eh     change       -0.1721542E-04 Eh
   gradient norm :     0.0026045 Eh/α   predicted    -0.9447287E-05 ( -45.12%)
   displ. norm   :     0.1902376 α      lambda       -0.7750691E-04
   maximum displ.:     0.0896198 α      in ANC's #1, #6, #9, ...

........................................................................
.............................. CYCLE   25 ..............................
........................................................................

 iter      E             dE          RMSdq      gap      omega  full diag
   1   -144.2139617 -0.144214E+03  0.299E-02    2.03       0.0  T
   2   -144.2139622 -0.464516E-06  0.173E-02    2.03       1.0  T
   3   -144.2139615  0.670036E-06  0.336E-03    2.03       3.1  T
   4   -144.2139623 -0.826998E-06  0.965E-04    2.03      10.9  T
   5   -144.2139624 -0.243291E-07  0.373E-04    2.03      28.1  T
     SCC iter.                  ...        0 min,  0.771 sec
     gradient                   ...        0 min,  0.120 sec
 * total energy  :  -142.0819947 Eh     change       -0.5220686E-04 Eh
   gradient norm :     0.0015796 Eh/α   predicted    -0.4022017E-04 ( -22.96%)
   displ. norm   :     0.2638501 α      lambda       -0.3441809E-04
   maximum displ.:     0.1287189 α      in ANC's #1, #6, #9, ...

........................................................................
.............................. CYCLE   26 ..............................
........................................................................

 iter      E             dE          RMSdq      gap      omega  full diag
   1   -144.2129017 -0.144213E+03  0.377E-02    2.03       0.0  T
   2   -144.2129022 -0.468644E-06  0.221E-02    2.03       1.0  T
   3   -144.2129014  0.734054E-06  0.301E-03    2.03       3.5  T
   4   -144.2129023 -0.897237E-06  0.102E-03    2.03      10.3  T
   5   -144.2129024 -0.469433E-07  0.510E-04    2.03      20.6  T
   6   -144.2129024 -0.103664E-07  0.243E-04    2.03      43.2  T
     SCC iter.                  ...        0 min,  0.880 sec
     gradient                   ...        0 min,  0.121 sec
 * total energy  :  -142.0820299 Eh     change       -0.3520518E-04 Eh
   gradient norm :     0.0032062 Eh/α   predicted    -0.1774241E-04 ( -49.60%)
   displ. norm   :     0.1469935 α      lambda       -0.3148902E-04
   maximum displ.:     0.0744936 α      in ANC's #1, #6, #9, ...

........................................................................
.............................. CYCLE   27 ..............................
........................................................................

 iter      E             dE          RMSdq      gap      omega  full diag
   1   -144.2133195 -0.144213E+03  0.202E-02    2.03       0.0  T
   2   -144.2133197 -0.174960E-06  0.117E-02    2.03       1.0  T
   3   -144.2133193  0.370873E-06  0.246E-03    2.03       4.3  T
   4   -144.2133197 -0.421952E-06  0.848E-04    2.03      12.4  T
   5   -144.2133198 -0.170695E-07  0.468E-04    2.03      22.4  T
     SCC iter.                  ...        0 min,  0.579 sec
     gradient                   ...        0 min,  0.116 sec
 * total energy  :  -142.0820583 Eh     change       -0.2837102E-04 Eh
   gradient norm :     0.0026559 Eh/α   predicted    -0.1608523E-04 ( -43.30%)
   displ. norm   :     0.3082120 α      lambda       -0.7161086E-04
   maximum displ.:     0.1604368 α      in ANC's #1, #6, #9, ...

........................................................................
.............................. CYCLE   28 ..............................
........................................................................

 iter      E             dE          RMSdq      gap      omega  full diag
   1   -144.2146749 -0.144215E+03  0.410E-02    2.03       0.0  T
   2   -144.2146755 -0.672931E-06  0.241E-02    2.03       1.0  T
   3   -144.2146743  0.123013E-05  0.426E-03    2.03       2.5  T
   4   -144.2146758 -0.148270E-05  0.125E-03    2.03       8.4  T
   5   -144.2146758 -0.311237E-07  0.776E-04    2.03      13.5  T
   6   -144.2146759 -0.445057E-07  0.295E-04    2.03      35.5  T
     SCC iter.                  ...        0 min,  0.659 sec
     gradient                   ...        0 min,  0.116 sec
 * total energy  :  -142.0821161 Eh     change       -0.5781939E-04 Eh
   gradient norm :     0.0012010 Eh/α   predicted    -0.3920751E-04 ( -32.19%)
   displ. norm   :     0.5523938 α      lambda       -0.6613437E-04
   maximum displ.:     0.2948228 α      in ANC's #1, #6, #2, ...

........................................................................
.............................. CYCLE   29 ..............................
........................................................................

 iter      E             dE          RMSdq      gap      omega  full diag
   1   -144.2150203 -0.144215E+03  0.735E-02    2.04       0.0  T
   2   -144.2150223 -0.203003E-05  0.432E-02    2.04       1.0  T
   3   -144.2150186  0.374825E-05  0.735E-03    2.04       1.4  T
   4   -144.2150231 -0.449469E-05  0.235E-03    2.04       4.5  T
   5   -144.2150232 -0.148293E-06  0.138E-03    2.04       7.6  T
   6   -144.2150234 -0.150875E-06  0.421E-04    2.04      24.9  T
   7   -144.2150234 -0.599832E-08  0.203E-04    2.04      51.7  T
     SCC iter.                  ...        0 min,  1.051 sec
     gradient                   ...        0 min,  0.135 sec
 * total energy  :  -142.0821846 Eh     change       -0.6851736E-04 Eh
   gradient norm :     0.0028155 Eh/α   predicted    -0.3755198E-04 ( -45.19%)
   displ. norm   :     0.2515920 α      lambda       -0.4712282E-04
   maximum displ.:     0.1403738 α      in ANC's #1, #6, #2, ...

........................................................................
.............................. CYCLE   30 ..............................
........................................................................

 iter      E             dE          RMSdq      gap      omega  full diag
   1   -144.2153377 -0.144215E+03  0.341E-02    2.04       0.0  T
   2   -144.2153384 -0.729165E-06  0.198E-02    2.04       1.0  T
   3   -144.2153377  0.768325E-06  0.356E-03    2.04       2.9  T
   4   -144.2153384 -0.713159E-06  0.185E-03    2.04       5.7  T
   5   -144.2153387 -0.282183E-06  0.693E-04    2.04      15.1  T
   6   -144.2153387 -0.237905E-07  0.339E-04    2.04      30.9  T
     SCC iter.                  ...        0 min,  0.776 sec
     gradient                   ...        0 min,  0.123 sec
 * total energy  :  -142.0822222 Eh     change       -0.3762047E-04 Eh
   gradient norm :     0.0028558 Eh/α   predicted    -0.2505370E-04 ( -33.40%)
   displ. norm   :     0.2794497 α      lambda       -0.6361875E-04
   maximum displ.:     0.1605612 α      in ANC's #1, #6, #2, ...

........................................................................
.............................. CYCLE   31 ..............................
........................................................................

 iter      E             dE          RMSdq      gap      omega  full diag
   1   -144.2162309 -0.144216E+03  0.379E-02    2.05       0.0  T
   2   -144.2162316 -0.698409E-06  0.222E-02    2.05       1.0  T
   3   -144.2162309  0.717440E-06  0.359E-03    2.05       2.9  T
   4   -144.2162317 -0.815277E-06  0.162E-03    2.05       6.5  T
   5   -144.2162319 -0.136670E-06  0.732E-04    2.05      14.3  T
   6   -144.2162319 -0.400907E-07  0.258E-04    2.05      40.6  T
     SCC iter.                  ...        0 min,  0.766 sec
     gradient                   ...        0 min,  0.121 sec
 * total energy  :  -142.0822770 Eh     change       -0.5475966E-04 Eh
   gradient norm :     0.0018634 Eh/α   predicted    -0.3429651E-04 ( -37.37%)
   displ. norm   :     0.6120115 α      lambda       -0.8638728E-04
   maximum displ.:     0.3532531 α      in ANC's #1, #6, #2, ...

........................................................................
.............................. CYCLE   32 ..............................
........................................................................

 iter      E             dE          RMSdq      gap      omega  full diag
   1   -144.2144841 -0.144214E+03  0.832E-02    2.05       0.0  T
   2   -144.2144870 -0.292192E-05  0.488E-02    2.06       1.0  T
   3   -144.2144818  0.521666E-05  0.843E-03    2.05       1.2  T
   4   -144.2144877 -0.588119E-05  0.337E-03    2.06       3.1  T
   5   -144.2144883 -0.569567E-06  0.147E-03    2.06       7.1  T
   6   -144.2144884 -0.148514E-06  0.543E-04    2.06      19.3  T
   7   -144.2144884 -0.143899E-07  0.268E-04    2.06      39.0  T
     SCC iter.                  ...        0 min,  1.004 sec
     gradient                   ...        0 min,  0.122 sec
 * total energy  :  -142.0823799 Eh     change       -0.1029198E-03 Eh
   gradient norm :     0.0024831 Eh/α   predicted    -0.5038884E-04 ( -51.04%)
   displ. norm   :     0.3867404 α      lambda       -0.8255827E-04
   maximum displ.:     0.2268516 α      in ANC's #1, #6, #2, ...

........................................................................
.............................. CYCLE   33 ..............................
........................................................................

 iter      E             dE          RMSdq      gap      omega  full diag
   1   -144.2138272 -0.144214E+03  0.528E-02    2.06       0.0  T
   2   -144.2138283 -0.112729E-05  0.308E-02    2.06       1.0  T
   3   -144.2138255  0.279216E-05  0.596E-03    2.06       1.8  T
   4   -144.2138285 -0.300484E-05  0.240E-03    2.06       4.4  T
   5   -144.2138288 -0.323501E-06  0.958E-04    2.06      10.9  T
   6   -144.2138289 -0.630374E-07  0.364E-04    2.06      28.8  T
     SCC iter.                  ...        0 min,  0.729 sec
     gradient                   ...        0 min,  0.115 sec
 * total energy  :  -142.0824552 Eh     change       -0.7526511E-04 Eh
   gradient norm :     0.0032409 Eh/α   predicted    -0.4745536E-04 ( -36.95%)
   displ. norm   :     0.5624721 α      lambda       -0.1477488E-03
   maximum displ.:     0.3291528 α      in ANC's #1, #6, #2, ...

........................................................................
.............................. CYCLE   34 ..............................
........................................................................

 iter      E             dE          RMSdq      gap      omega  full diag
   1   -144.2131129 -0.144213E+03  0.787E-02    2.06       0.0  T
   2   -144.2131153 -0.242676E-05  0.455E-02    2.07       1.0  T
   3   -144.2131081  0.718794E-05  0.952E-03    2.06       1.1  T
   4   -144.2131155 -0.741740E-05  0.406E-03    2.07       2.6  T
   5   -144.2131165 -0.101245E-05  0.147E-03    2.06       7.1  T
   6   -144.2131167 -0.150329E-06  0.576E-04    2.06      18.2  T
   7   -144.2131167 -0.114574E-07  0.328E-04    2.06      31.9  T
     SCC iter.                  ...        0 min,  1.080 sec
     gradient                   ...        0 min,  0.118 sec
 * total energy  :  -142.0825851 Eh     change       -0.1299754E-03 Eh
   gradient norm :     0.0039043 Eh/α   predicted    -0.9725184E-04 ( -25.18%)
   displ. norm   :     0.6318293 α      lambda       -0.1790967E-03
   maximum displ.:     0.3677652 α      in ANC's #1, #6, #2, ...

........................................................................
.............................. CYCLE   35 ..............................
........................................................................

 iter      E             dE          RMSdq      gap      omega  full diag
   1   -144.2120627 -0.144212E+03  0.895E-02    2.07       0.0  T
   2   -144.2120660 -0.331105E-05  0.514E-02    2.07       1.0  T
   3   -144.2120560  0.100487E-04  0.115E-02    2.07       1.0  T
   4   -144.2120662 -0.102276E-04  0.505E-03    2.07       2.1  T
   5   -144.2120677 -0.152578E-05  0.182E-03    2.07       5.8  T
   6   -144.2120680 -0.244232E-06  0.737E-04    2.07      14.2  T
   7   -144.2120680 -0.150651E-07  0.441E-04    2.07      23.7  T
     SCC iter.                  ...        0 min,  0.961 sec
     gradient                   ...        0 min,  0.116 sec
 * total energy  :  -142.0827362 Eh     change       -0.1510884E-03 Eh
   gradient norm :     0.0041000 Eh/α   predicted    -0.1252957E-03 ( -17.07%)
   displ. norm   :     0.5522549 α      lambda       -0.1767196E-03
   maximum displ.:     0.3160677 α      in ANC's #1, #6, #2, ...

........................................................................
.............................. CYCLE   36 ..............................
........................................................................

 iter      E             dE          RMSdq      gap      omega  full diag
   1   -144.2131001 -0.144213E+03  0.799E-02    2.07       0.0  T
   2   -144.2131034 -0.324561E-05  0.453E-02    2.07       1.0  T
   3   -144.2130949  0.843285E-05  0.112E-02    2.07       1.0  T
   4   -144.2131035 -0.850824E-05  0.500E-03    2.07       2.1  T
   5   -144.2131048 -0.138662E-05  0.186E-03    2.07       5.6  T
   6   -144.2131051 -0.258799E-06  0.790E-04    2.07      13.3  T
   7   -144.2131051 -0.190525E-07  0.485E-04    2.07      21.6  T
     SCC iter.                  ...        0 min,  1.094 sec
     gradient                   ...        0 min,  0.126 sec
 * total energy  :  -142.0828751 Eh     change       -0.1389052E-03 Eh
   gradient norm :     0.0035380 Eh/α   predicted    -0.1153095E-03 ( -16.99%)
   displ. norm   :     0.6162220 α      lambda       -0.1555722E-03
   maximum displ.:     0.3653967 α      in ANC's #1, #6, #2, ...

........................................................................
.............................. CYCLE   37 ..............................
........................................................................

 iter      E             dE          RMSdq      gap      omega  full diag
   1   -144.2102374 -0.144210E+03  0.860E-02    2.07       0.0  T
   2   -144.2102420 -0.464911E-05  0.493E-02    2.07       1.0  T
   3   -144.2102308  0.112051E-04  0.126E-02    2.07       1.0  T
   4   -144.2102428 -0.120129E-04  0.491E-03    2.07       2.1  T
   5   -144.2102440 -0.114440E-05  0.218E-03    2.07       4.8  T
   6   -144.2102444 -0.377845E-06  0.776E-04    2.07      13.5  T
   7   -144.2102444 -0.194540E-07  0.471E-04    2.07      22.3  T
     SCC iter.                  ...        0 min,  0.899 sec
     gradient                   ...        0 min,  0.127 sec
 * total energy  :  -142.0829813 Eh     change       -0.1062000E-03 Eh
   gradient norm :     0.0045323 Eh/α   predicted    -0.1073228E-03 (   1.06%)
   displ. norm   :     0.3979145 α      lambda       -0.2218466E-03
   maximum displ.:     0.1983879 α      in ANC's #1, #8, #15, ...

........................................................................
.............................. CYCLE   38 ..............................
........................................................................

 iter      E             dE          RMSdq      gap      omega  full diag
   1   -144.2183121 -0.144218E+03  0.621E-02    2.08       0.0  T
   2   -144.2183175 -0.530623E-05  0.343E-02    2.08       1.0  T
   3   -144.2183119  0.558943E-05  0.111E-02    2.08       1.0  T
   4   -144.2183184 -0.658545E-05  0.426E-03    2.08       2.5  T
   5   -144.2183190 -0.512958E-06  0.185E-03    2.08       5.7  T
   6   -144.2183192 -0.199999E-06  0.907E-04    2.08      11.6  T
   7   -144.2183192 -0.446513E-07  0.527E-04    2.08      19.9  T
     SCC iter.                  ...        0 min,  0.980 sec
     gradient                   ...        0 min,  0.125 sec
 * total energy  :  -142.0830723 Eh     change       -0.9094602E-04 Eh
   gradient norm :     0.0046855 Eh/α   predicted    -0.1284882E-03 (  41.28%)
   displ. norm   :     0.0898270 α      lambda        0.3340105E-04
   maximum displ.:     0.0468007 α      in ANC's #15, #8, #17, ...

........................................................................
.............................. CYCLE   39 ..............................
........................................................................

 iter      E             dE          RMSdq      gap      omega  full diag
   1   -144.2178253 -0.144218E+03  0.169E-02    2.08       0.0  T
   2   -144.2178257 -0.392424E-06  0.952E-03    2.08       1.1  T
   3   -144.2178254  0.271708E-06  0.265E-03    2.08       4.0  T
   4   -144.2178257 -0.317916E-06  0.100E-03    2.08      10.4  T
   5   -144.2178258 -0.441227E-07  0.424E-04    2.08      24.7  T
   6   -144.2178258 -0.653716E-08  0.187E-04    2.08      56.0  T
     SCC iter.                  ...        0 min,  0.809 sec
     gradient                   ...        0 min,  0.115 sec
 * total energy  :  -142.0830759 Eh     change       -0.3590309E-05 Eh
   gradient norm :     0.0049226 Eh/α   predicted     0.1683314E-04 (-568.85%)
   displ. norm   :     0.3026414 α      lambda       -0.1166494E-03
   maximum displ.:     0.1826394 α      in ANC's #1, #6, #2, ...

........................................................................
.............................. CYCLE   40 ..............................
........................................................................

 iter      E             dE          RMSdq      gap      omega  full diag
   1   -144.2138075 -0.144214E+03  0.425E-02    2.08       0.0  T
   2   -144.2138085 -0.101546E-05  0.248E-02    2.08       1.0  T
   3   -144.2138053  0.322130E-05  0.589E-03    2.08       1.8  T
   4   -144.2138088 -0.355483E-05  0.179E-03    2.08       5.8  T
   5   -144.2138090 -0.141661E-06  0.904E-04    2.08      11.6  T
   6   -144.2138090 -0.606997E-07  0.311E-04    2.08      33.7  T
     SCC iter.                  ...        0 min,  0.949 sec
     gradient                   ...        0 min,  0.128 sec
 * total energy  :  -142.0831575 Eh     change       -0.8158592E-04 Eh
   gradient norm :     0.0037701 Eh/α   predicted    -0.6366726E-04 ( -21.96%)
   displ. norm   :     0.2751408 α      lambda       -0.1122991E-03
   maximum displ.:     0.1638938 α      in ANC's #1, #2, #6, ...

........................................................................
.............................. CYCLE   41 ..............................
........................................................................

 iter      E             dE          RMSdq      gap      omega  full diag
   1   -144.2134200 -0.144213E+03  0.356E-02    2.09       0.0  T
   2   -144.2134209 -0.937994E-06  0.209E-02    2.09       1.0  T
   3   -144.2134196  0.131166E-05  0.450E-03    2.09       2.3  T
   4   -144.2134212 -0.157144E-05  0.150E-03    2.09       7.0  T
   5   -144.2134212 -0.591906E-07  0.769E-04    2.09      13.6  T
   6   -144.2134213 -0.239531E-07  0.416E-04    2.09      25.2  T
     SCC iter.                  ...        0 min,  0.797 sec
     gradient                   ...        0 min,  0.169 sec
 * total energy  :  -142.0832365 Eh     change       -0.7904673E-04 Eh
   gradient norm :     0.0031133 Eh/α   predicted    -0.6040292E-04 ( -23.59%)
   displ. norm   :     0.3439331 α      lambda       -0.1160927E-03
   maximum displ.:     0.2013975 α      in ANC's #1, #2, #6, ...

........................................................................
.............................. CYCLE   42 ..............................
........................................................................

 iter      E             dE          RMSdq      gap      omega  full diag
   1   -144.2136463 -0.144214E+03  0.488E-02    2.10       0.0  T
   2   -144.2136477 -0.144465E-05  0.285E-02    2.10       1.0  T
   3   -144.2136452  0.245237E-05  0.549E-03    2.10       1.9  T
   4   -144.2136481 -0.281575E-05  0.188E-03    2.10       5.6  T
   5   -144.2136482 -0.128653E-06  0.992E-04    2.10      10.6  T
   6   -144.2136482 -0.511427E-07  0.506E-04    2.10      20.7  T
     SCC iter.                  ...        0 min,  0.712 sec
     gradient                   ...        0 min,  0.121 sec
 * total energy  :  -142.0833127 Eh     change       -0.7619981E-04 Eh
   gradient norm :     0.0036106 Eh/α   predicted    -0.6491440E-04 ( -14.81%)
   displ. norm   :     0.3173964 α      lambda       -0.8126103E-04
   maximum displ.:     0.1990757 α      in ANC's #1, #2, #6, ...
 * RMSD in coord.:     0.6907152 α      energy gain  -0.1553707E-02 Eh

generating ANC from exact Hessian ...
Using Lindh-Hessian (1995)
 Shifting diagonal of input Hessian by    9.8872899886287315E-003
 Lowest  eigenvalues of input Hessian
    0.000000    0.000000    0.000000    0.000000    0.000000    0.000000
    0.010000    0.010083    0.010151    0.010166    0.010226    0.010297
    0.010508    0.010619    0.010902    0.011082    0.011225    0.011561
 Highest eigenvalues
    2.012511    2.019132    2.028562    2.075345    2.116319    2.125953


........................................................................
.............................. CYCLE   43 ..............................
........................................................................

 iter      E             dE          RMSdq      gap      omega  full diag
   1   -144.2153336 -0.144215E+03  0.412E-02    2.11       0.0  T
   2   -144.2153344 -0.800620E-06  0.240E-02    2.10       1.0  T
   3   -144.2153319  0.249665E-05  0.549E-03    2.10       1.9  T
   4   -144.2153348 -0.288661E-05  0.144E-03    2.10       7.3  T
   5   -144.2153348 -0.287379E-07  0.842E-04    2.10      12.4  T
   6   -144.2153349 -0.569324E-07  0.277E-04    2.10      37.8  T
     SCC iter.                  ...        0 min,  0.837 sec
     gradient                   ...        0 min,  0.118 sec
 * total energy  :  -142.0833730 Eh     change       -0.6029793E-04 Eh
   gradient norm :     0.0026224 Eh/α   predicted     0.0000000E+00 (-100.00%)
   displ. norm   :     0.0370913 α      lambda       -0.3019848E-04
   maximum displ.:     0.0161998 α      in ANC's #14, #1, #15, ...

........................................................................
.............................. CYCLE   44 ..............................
........................................................................

 iter      E             dE          RMSdq      gap      omega  full diag
   1   -144.2168078 -0.144217E+03  0.104E-02    2.10       0.0  T
   2   -144.2168079 -0.122297E-06  0.556E-03    2.10       1.9  T
   3   -144.2168079  0.342886E-07  0.140E-03    2.10       7.5  T
   4   -144.2168079 -0.339319E-07  0.780E-04    2.10      13.4  T
   5   -144.2168079 -0.223004E-07  0.344E-04    2.10      30.5  T
     SCC iter.                  ...        0 min,  0.811 sec
     gradient                   ...        0 min,  0.147 sec
 * total energy  :  -142.0833967 Eh     change       -0.2370773E-04 Eh
   gradient norm :     0.0012161 Eh/α   predicted    -0.1531802E-04 ( -35.39%)
   displ. norm   :     0.1282127 α      lambda       -0.3881212E-04
   maximum displ.:     0.0537423 α      in ANC's #1, #14, #15, ...

........................................................................
.............................. CYCLE   45 ..............................
........................................................................

 iter      E             dE          RMSdq      gap      omega  full diag
   1   -144.2186008 -0.144219E+03  0.276E-02    2.10       0.0  T
   2   -144.2186014 -0.612556E-06  0.161E-02    2.10       1.0  T
   3   -144.2186004  0.102135E-05  0.403E-03    2.10       2.6  T
   4   -144.2186016 -0.119283E-05  0.135E-03    2.10       7.8  T
   5   -144.2186016 -0.597062E-07  0.836E-04    2.10      12.5  T
   6   -144.2186017 -0.258500E-07  0.441E-04    2.10      23.7  T
     SCC iter.                  ...        0 min,  0.843 sec
     gradient                   ...        0 min,  0.125 sec
 * total energy  :  -142.0834238 Eh     change       -0.2712067E-04 Eh
   gradient norm :     0.0022611 Eh/α   predicted    -0.1954850E-04 ( -27.92%)
   displ. norm   :     0.0376486 α      lambda       -0.1408042E-04
   maximum displ.:     0.0199075 α      in ANC's #1, #2, #14, ...

........................................................................
.............................. CYCLE   46 ..............................
........................................................................

 iter      E             dE          RMSdq      gap      omega  full diag
   1   -144.2177894 -0.144218E+03  0.906E-03    2.10       0.0  T
   2   -144.2177895 -0.121853E-06  0.483E-03    2.10       2.2  T
   3   -144.2177895  0.556359E-07  0.151E-03    2.10       7.0  T
   4   -144.2177896 -0.707455E-07  0.677E-04    2.10      15.5  T
   5   -144.2177896 -0.119243E-07  0.312E-04    2.10      33.6  T
     SCC iter.                  ...        0 min,  0.765 sec
     gradient                   ...        0 min,  0.119 sec
 * total energy  :  -142.0834355 Eh     change       -0.1166109E-04 Eh
   gradient norm :     0.0016569 Eh/α   predicted    -0.7051384E-05 ( -39.53%)
   displ. norm   :     0.1443043 α      lambda       -0.2876231E-04
   maximum displ.:     0.0790044 α      in ANC's #1, #2, #3, ...

........................................................................
.............................. CYCLE   47 ..............................
........................................................................

 iter      E             dE          RMSdq      gap      omega  full diag
   1   -144.2148643 -0.144215E+03  0.267E-02    2.10       0.0  T
   2   -144.2148648 -0.447898E-06  0.156E-02    2.10       1.0  T
   3   -144.2148633  0.142593E-05  0.403E-03    2.10       2.6  T
   4   -144.2148650 -0.164899E-05  0.985E-04    2.10      10.6  T
   5   -144.2148650 -0.336431E-07  0.535E-04    2.10      19.6  T
   6   -144.2148650 -0.183698E-07  0.219E-04    2.10      47.8  T
     SCC iter.                  ...        0 min,  0.767 sec
     gradient                   ...        0 min,  0.131 sec
 * total energy  :  -142.0834570 Eh     change       -0.2155088E-04 Eh
   gradient norm :     0.0015167 Eh/α   predicted    -0.1451433E-04 ( -32.65%)
   displ. norm   :     0.0601566 α      lambda       -0.8732954E-05
   maximum displ.:     0.0371084 α      in ANC's #1, #2, #3, ...

........................................................................
.............................. CYCLE   48 ..............................
........................................................................

 iter      E             dE          RMSdq      gap      omega  full diag
   1   -144.2155993 -0.144216E+03  0.974E-03    2.10       0.0  T
   2   -144.2155993 -0.513645E-07  0.561E-03    2.10       1.9  T
   3   -144.2155993  0.603923E-07  0.103E-03    2.10      10.2  T
   4   -144.2155994 -0.615321E-07  0.497E-04    2.10      21.1  T
   5   -144.2155994 -0.168187E-07  0.187E-04    2.10      55.9  T
     SCC iter.                  ...        0 min,  0.729 sec
     gradient                   ...        0 min,  0.148 sec
 * total energy  :  -142.0834688 Eh     change       -0.1173218E-04 Eh
   gradient norm :     0.0010400 Eh/α   predicted    -0.4373874E-05 ( -62.72%)
   displ. norm   :     0.1506909 α      lambda       -0.2312565E-04
   maximum displ.:     0.0915620 α      in ANC's #1, #2, #3, ...

........................................................................
.............................. CYCLE   49 ..............................
........................................................................

 iter      E             dE          RMSdq      gap      omega  full diag
   1   -144.2176782 -0.144218E+03  0.227E-02    2.11       0.0  T
   2   -144.2176785 -0.347329E-06  0.131E-02    2.11       1.0  T
   3   -144.2176782  0.267028E-06  0.227E-03    2.11       4.6  T
   4   -144.2176785 -0.286750E-06  0.104E-03    2.11      10.1  T
   5   -144.2176786 -0.775633E-07  0.402E-04    2.11      26.1  T
   6   -144.2176786 -0.410796E-08  0.251E-04    2.11      41.8  T
     SCC iter.                  ...        0 min,  0.680 sec
     gradient                   ...        0 min,  0.115 sec
 * total energy  :  -142.0834924 Eh     change       -0.2363183E-04 Eh
   gradient norm :     0.0009863 Eh/α   predicted    -0.1168088E-04 ( -50.57%)
   displ. norm   :     0.2001920 α      lambda       -0.2202150E-04
   maximum displ.:     0.1228949 α      in ANC's #1, #2, #3, ...

........................................................................
.............................. CYCLE   50 ..............................
........................................................................

 iter      E             dE          RMSdq      gap      omega  full diag
   1   -144.2184803 -0.144218E+03  0.305E-02    2.11       0.0  T
   2   -144.2184810 -0.714953E-06  0.172E-02    2.11       1.0  T
   3   -144.2184807  0.326452E-06  0.327E-03    2.11       3.2  T
   4   -144.2184809 -0.255366E-06  0.179E-03    2.11       5.8  T
   5   -144.2184811 -0.219478E-06  0.612E-04    2.11      17.1  T
   6   -144.2184812 -0.189517E-07  0.321E-04    2.11      32.6  T
     SCC iter.                  ...        0 min,  0.609 sec
     gradient                   ...        0 min,  0.115 sec
 * total energy  :  -142.0835123 Eh     change       -0.1992862E-04 Eh
   gradient norm :     0.0014993 Eh/α   predicted    -0.1120806E-04 ( -43.76%)
   displ. norm   :     0.1545723 α      lambda       -0.1478721E-04
   maximum displ.:     0.0973621 α      in ANC's #1, #2, #3, ...

........................................................................
.............................. CYCLE   51 ..............................
........................................................................

 iter      E             dE          RMSdq      gap      omega  full diag
   1   -144.2180786 -0.144218E+03  0.236E-02    2.11       0.0  T
   2   -144.2180789 -0.318438E-06  0.133E-02    2.11       1.0  T
   3   -144.2180784  0.436927E-06  0.307E-03    2.11       3.4  T
   4   -144.2180789 -0.469503E-06  0.128E-03    2.11       8.2  T
   5   -144.2180790 -0.734239E-07  0.555E-04    2.11      18.9  T
   6   -144.2180790 -0.252134E-07  0.183E-04    2.11      57.1  T
     SCC iter.                  ...        0 min,  0.591 sec
     gradient                   ...        0 min,  0.118 sec
 * total energy  :  -142.0835307 Eh     change       -0.1840729E-04 Eh
   gradient norm :     0.0010560 Eh/α   predicted    -0.7473933E-05 ( -59.40%)
   displ. norm   :     0.1484990 α      lambda       -0.1500279E-04
   maximum displ.:     0.0967813 α      in ANC's #1, #2, #3, ...

........................................................................
.............................. CYCLE   52 ..............................
........................................................................

 iter      E             dE          RMSdq      gap      omega  full diag
   1   -144.2173702 -0.144217E+03  0.203E-02    2.11       0.0  T
   2   -144.2173703 -0.158171E-06  0.118E-02    2.11       1.0  T
   3   -144.2173697  0.650590E-06  0.278E-03    2.11       3.8  T
   4   -144.2173704 -0.711977E-06  0.816E-04    2.11      12.8  T
   5   -144.2173704 -0.270425E-07  0.428E-04    2.11      24.5  T
     SCC iter.                  ...        0 min,  0.700 sec
     gradient                   ...        0 min,  0.132 sec
 * total energy  :  -142.0835494 Eh     change       -0.1870685E-04 Eh
   gradient norm :     0.0004324 Eh/α   predicted    -0.7576480E-05 ( -59.50%)
   displ. norm   :     0.1600904 α      lambda       -0.1466545E-04
   maximum displ.:     0.1070480 α      in ANC's #1, #2, #3, ...

........................................................................
.............................. CYCLE   53 ..............................
........................................................................

 iter      E             dE          RMSdq      gap      omega  full diag
   1   -144.2167774 -0.144217E+03  0.199E-02    2.11       0.0  T
   2   -144.2167775 -0.130611E-06  0.116E-02    2.12       1.0  T
   3   -144.2167770  0.550940E-06  0.253E-03    2.12       4.1  T
   4   -144.2167776 -0.612147E-06  0.721E-04    2.12      14.5  T
   5   -144.2167776 -0.178131E-07  0.382E-04    2.12      27.4  T
     SCC iter.                  ...        0 min,  0.799 sec
     gradient                   ...        0 min,  0.185 sec
 * total energy  :  -142.0835682 Eh     change       -0.1876391E-04 Eh
   gradient norm :     0.0007724 Eh/α   predicted    -0.7420356E-05 ( -60.45%)
   displ. norm   :     0.1671080 α      lambda       -0.1473135E-04
   maximum displ.:     0.1130033 α      in ANC's #1, #2, #4, ...

........................................................................
.............................. CYCLE   54 ..............................
........................................................................

 iter      E             dE          RMSdq      gap      omega  full diag
   1   -144.2165080 -0.144217E+03  0.198E-02    2.12       0.0  T
   2   -144.2165082 -0.146391E-06  0.115E-02    2.12       1.0  T
   3   -144.2165078  0.371456E-06  0.215E-03    2.12       4.9  T
   4   -144.2165082 -0.416089E-06  0.758E-04    2.12      13.8  T
   5   -144.2165082 -0.306802E-07  0.332E-04    2.12      31.6  T
     SCC iter.                  ...        0 min,  0.714 sec
     gradient                   ...        0 min,  0.149 sec
 * total energy  :  -142.0835873 Eh     change       -0.1908307E-04 Eh
   gradient norm :     0.0009633 Eh/α   predicted    -0.7457428E-05 ( -60.92%)
   displ. norm   :     0.1825893 α      lambda       -0.1551094E-04
   maximum displ.:     0.1245073 α      in ANC's #1, #2, #6, ...

........................................................................
.............................. CYCLE   55 ..............................
........................................................................

 iter      E             dE          RMSdq      gap      omega  full diag
   1   -144.2165224 -0.144217E+03  0.219E-02    2.12       0.0  T
   2   -144.2165225 -0.192953E-06  0.127E-02    2.12       1.0  T
   3   -144.2165222  0.394942E-06  0.238E-03    2.12       4.4  T
   4   -144.2165226 -0.445863E-06  0.931E-04    2.12      11.3  T
   5   -144.2165226 -0.415761E-07  0.394E-04    2.12      26.6  T
     SCC iter.                  ...        0 min,  0.592 sec
     gradient                   ...        0 min,  0.115 sec
 * total energy  :  -142.0836074 Eh     change       -0.2013229E-04 Eh
   gradient norm :     0.0009277 Eh/α   predicted    -0.7871214E-05 ( -60.90%)
   displ. norm   :     0.1973010 α      lambda       -0.1598097E-04
   maximum displ.:     0.1359208 α      in ANC's #1, #2, #6, ...

........................................................................
.............................. CYCLE   56 ..............................
........................................................................

 iter      E             dE          RMSdq      gap      omega  full diag
   1   -144.2166685 -0.144217E+03  0.245E-02    2.12       0.0  T
   2   -144.2166687 -0.250670E-06  0.141E-02    2.12       1.0  T
   3   -144.2166684  0.336061E-06  0.244E-03    2.12       4.3  T
   4   -144.2166687 -0.346039E-06  0.117E-03    2.12       9.0  T
   5   -144.2166688 -0.828080E-07  0.425E-04    2.12      24.7  T
   6   -144.2166688 -0.139846E-07  0.171E-04    2.12      61.2  T
     SCC iter.                  ...        0 min,  0.909 sec
     gradient                   ...        0 min,  0.167 sec
 * total energy  :  -142.0836285 Eh     change       -0.2111364E-04 Eh
   gradient norm :     0.0007333 Eh/α   predicted    -0.8130193E-05 ( -61.49%)
   displ. norm   :     0.2122510 α      lambda       -0.1704224E-04
   maximum displ.:     0.1472168 α      in ANC's #1, #2, #6, ...

........................................................................
.............................. CYCLE   57 ..............................
........................................................................

 iter      E             dE          RMSdq      gap      omega  full diag
   1   -144.2169568 -0.144217E+03  0.273E-02    2.13       0.0  T
   2   -144.2169570 -0.266039E-06  0.156E-02    2.13       1.0  T
   3   -144.2169566  0.442706E-06  0.278E-03    2.13       3.8  T
   4   -144.2169570 -0.450885E-06  0.128E-03    2.13       8.2  T
   5   -144.2169571 -0.889645E-07  0.484E-04    2.13      21.7  T
   6   -144.2169571 -0.197147E-07  0.181E-04    2.13      57.8  T
     SCC iter.                  ...        0 min,  0.803 sec
     gradient                   ...        0 min,  0.122 sec
 * total energy  :  -142.0836515 Eh     change       -0.2291879E-04 Eh
   gradient norm :     0.0005764 Eh/α   predicted    -0.8692817E-05 ( -62.07%)
   displ. norm   :     0.2450959 α      lambda       -0.1997305E-04
   maximum displ.:     0.1701757 α      in ANC's #1, #2, #6, ...

........................................................................
.............................. CYCLE   58 ..............................
........................................................................

 iter      E             dE          RMSdq      gap      omega  full diag
   1   -144.2171816 -0.144217E+03  0.323E-02    2.13       0.0  T
   2   -144.2171819 -0.376932E-06  0.183E-02    2.13       1.0  T
   3   -144.2171814  0.499502E-06  0.318E-03    2.13       3.3  T
   4   -144.2171819 -0.430642E-06  0.167E-03    2.13       6.3  T
   5   -144.2171821 -0.181626E-06  0.569E-04    2.13      18.4  T
   6   -144.2171821 -0.277156E-07  0.210E-04    2.13      49.8  T
     SCC iter.                  ...        0 min,  0.869 sec
     gradient                   ...        0 min,  0.118 sec
 * total energy  :  -142.0836784 Eh     change       -0.2697504E-04 Eh
   gradient norm :     0.0005794 Eh/α   predicted    -0.1025535E-04 ( -61.98%)
   displ. norm   :     0.2890470 α      lambda       -0.2351801E-04
   maximum displ.:     0.2005603 α      in ANC's #1, #2, #6, ...

........................................................................
.............................. CYCLE   59 ..............................
........................................................................

 iter      E             dE          RMSdq      gap      omega  full diag
   1   -144.2174212 -0.144217E+03  0.371E-02    2.13       0.0  T
   2   -144.2174217 -0.467082E-06  0.212E-02    2.13       1.0  T
   3   -144.2174210  0.612684E-06  0.357E-03    2.13       2.9  T
   4   -144.2174216 -0.601360E-06  0.171E-03    2.13       6.1  T
   5   -144.2174218 -0.157971E-06  0.680E-04    2.13      15.4  T
[...]
    40   6 C        2.978    -0.008    28.204     8.711
    41   6 C        3.077     0.050    26.795     8.487
    42   6 C        2.916    -0.051    29.259     8.870
    43   6 C        2.919    -0.033    28.828     8.805
    44   6 C        2.987     0.014    27.704     8.634
    45   6 C        2.920    -0.030    28.757     8.794
    46   6 C        2.915    -0.022    28.546     8.761
    47   6 C        2.917    -0.022    28.560     8.764
    48   6 C        2.917    -0.032    28.803     8.801
    49   6 C        2.988     0.012    27.728     8.638
    50   7 N        2.683    -0.121    23.635     7.220
    51   6 C        3.832    -0.031    21.097     6.535
    52   1 H        0.925     0.064     2.154     2.295
    53   1 H        0.925     0.043     2.409     2.427
    54   1 H        0.925     0.066     2.125     2.280
    55   1 H        0.923     0.045     2.377     2.411
    56   1 H        0.925     0.056     2.241     2.341
    57   1 H        0.925     0.046     2.369     2.407
    58   1 H        0.925     0.063     2.159     2.298
    59   1 H        0.925     0.068     2.111     2.272
    60   1 H        0.924     0.035     2.515     2.480
    61   1 H        0.925     0.052     2.293     2.368
    62   1 H        0.924     0.046     2.376     2.410
    63   1 H        0.924     0.048     2.340     2.392
    64   1 H        0.924     0.055     2.263     2.352
    65   1 H        0.924     0.047     2.362     2.404
    66   1 H        0.926     0.046     2.370     2.407
    67   1 H        0.926     0.049     2.336     2.390
    68   1 H        0.926     0.043     2.404     2.424
    69   1 H        0.925     0.026     2.637     2.539
    70   1 H        0.926     0.064     2.148     2.292
    71   1 H        0.926     0.070     2.085     2.258
    72   1 H        0.926     0.075     2.027     2.226
    73   1 H        0.926     0.082     1.959     2.189
    74   1 H        0.924     0.057     2.236     2.339
    75   1 H        0.925     0.075     2.036     2.231
    76   1 H        0.925     0.067     2.115     2.274
    77   1 H        0.926     0.045     2.386     2.415
    78   1 H        0.926     0.057     2.237     2.339
    79   1 H        0.926     0.050     2.320     2.382
    80   1 H        0.926     0.051     2.309     2.376
    81   1 H        0.926     0.046     2.370     2.407
    82   1 H        0.926     0.037     2.486     2.466
    83   1 H        0.926     0.043     2.410     2.427
    84   1 H        0.926     0.054     2.276     2.359
    85   1 H        0.926     0.049     2.337     2.391
    86   1 H        0.926     0.052     2.298     2.371
    87   1 H        0.926     0.049     2.335     2.390
    88   1 H        0.926     0.040     2.453     2.449
    89   1 H        0.924     0.062     2.176     2.307
    90   1 H        0.924     0.056     2.243     2.342
    91   1 H        0.925     0.063     2.166     2.302

 Mol. C6AA /au·bohr⁶  :     113190.598521
 Mol. C8AA /au·bohr⁸  :    3014526.249317
 Mol. α(0) /au        :        535.293313


Wiberg/Mayer (AO) data.
largest (>0.10) Wiberg bond orders for each atom

 ---------------------------------------------------------------------------
     #   Z sym  total        # sym  WBO       # sym  WBO       # sym  WBO
 ---------------------------------------------------------------------------
     1   6 C    3.986 --     2 C    1.005    52 H    0.977    54 H    0.977
                            53 H    0.976
     2   6 C    3.958 --     1 C    1.005     3 C    1.003    55 H    0.939
                             4 N    0.931
     3   6 C    3.990 --     2 C    1.003    56 H    0.981    58 H    0.980
                            57 H    0.976
     4   7 N    3.414 --    15 P    1.272     2 C    0.931     5 C    0.930
     5   6 C    3.950 --    14 C    0.989     6 C    0.986     4 N    0.930
                            59 H    0.909
     6   6 C    3.992 --     7 C    1.006     5 C    0.986    60 H    0.974
                            61 H    0.966
     7   6 C    3.994 --     6 C    1.006     8 C    1.004    62 H    0.977
                            63 H    0.975
     8   6 C    3.996 --     9 C    1.013     7 C    1.004    64 H    0.969
                            65 H    0.956
     9   6 C    3.983 --    10 C    1.404    14 C    1.391     8 C    1.013
                            12 C    0.104
    10   6 C    3.990 --    11 C    1.455     9 C    1.404    66 H    0.968
                            13 C    0.110
    11   6 C    3.987 --    10 C    1.455    12 C    1.422    67 H    0.970
                            14 C    0.107
    12   6 C    3.991 --    13 C    1.457    11 C    1.422    68 H    0.970
                             9 C    0.104
    13   6 C    3.990 --    12 C    1.457    14 C    1.399    69 H    0.963
                            10 C    0.110
    14   6 C    3.981 --    13 C    1.399     9 C    1.391     5 C    0.989
                            11 C    0.107
    15  15 P    5.163 --     4 N    1.272    50 N    1.239    28 N    1.215
                            16 S    0.994
    16  16 S    2.497 --    17 S    1.148    15 P    0.994
    17  16 S    2.392 --    16 S    1.148    18 C    1.001
    18   6 C    3.965 --    19 C    1.392    23 C    1.378    17 S    1.001
                            21 C    0.101
    19   6 C    3.986 --    20 C    1.446    18 C    1.392    70 H    0.960
                            22 C    0.105
    20   6 C    3.985 --    19 C    1.446    21 C    1.430    71 H    0.966
                            23 C    0.103
    21   6 C    3.980 --    22 C    1.440    20 C    1.430    72 H    0.966
                            18 C    0.101
    22   6 C    3.985 --    21 C    1.440    23 C    1.410    73 H    0.962
                            19 C    0.105
    23   6 C    3.973 --    22 C    1.410    18 C    1.378    24 C    0.949
                            20 C    0.103
    24   6 C    3.830 --    25 F    0.964    27 F    0.956    23 C    0.949
                            26 F    0.924
    25   9 F    1.089 --    24 C    0.964
    26   9 F    1.060 --    24 C    0.924
    27   9 F    1.091 --    24 C    0.956
    28   7 N    3.421 --    15 P    1.215    29 C    0.973    30 C    0.966
    29   6 C    3.959 --    75 H    0.977    74 H    0.974    28 N    0.973
                            76 H    0.965
    30   6 C    3.950 --    39 C    1.453    31 C    1.288    28 N    0.966
    31   6 C    3.988 --    32 C    1.555    30 C    1.288    77 H    0.963
    32   6 C    3.984 --    31 C    1.555    33 C    1.273    78 H    0.966
                            39 C    0.105
    33   6 C    3.989 --    34 C    1.281    32 C    1.273    38 C    1.254
    34   6 C    3.988 --    35 C    1.555    33 C    1.281    79 H    0.967
                            37 C    0.118
    35   6 C    3.986 --    34 C    1.555    36 C    1.323    80 H    0.969
    36   6 C    3.990 --    37 C    1.552    35 C    1.323    81 H    0.970
    37   6 C    3.989 --    36 C    1.552    38 C    1.282    82 H    0.966
                            34 C    0.118
    38   6 C    3.987 --    37 C    1.282    33 C    1.254    39 C    1.234
    39   6 C    3.986 --    30 C    1.453    38 C    1.234    40 C    1.033
                            32 C    0.105
    40   6 C    3.985 --    41 C    1.462    49 C    1.230    39 C    1.033
                            43 C    0.105
    41   6 C    3.946 --    40 C    1.462    42 C    1.286    50 N    0.963
    42   6 C    3.985 --    43 C    1.558    41 C    1.286    83 H    0.962
    43   6 C    3.984 --    42 C    1.558    44 C    1.273    84 H    0.966
                            40 C    0.105
    44   6 C    3.988 --    45 C    1.281    43 C    1.273    49 C    1.254
    45   6 C    3.989 --    46 C    1.554    44 C    1.281    85 H    0.967
                            48 C    0.117
    46   6 C    3.987 --    45 C    1.554    47 C    1.324    86 H    0.969
    47   6 C    3.990 --    48 C    1.551    46 C    1.324    87 H    0.970
    48   6 C    3.989 --    47 C    1.551    49 C    1.286    88 H    0.965
                            45 C    0.117
    49   6 C    3.986 --    48 C    1.286    44 C    1.254    40 C    1.230
    50   7 N    3.432 --    15 P    1.239    51 C    0.973    41 C    0.963
    51   6 C    3.962 --    90 H    0.977    50 N    0.973    89 H    0.970
                            91 H    0.963
    52   1 H    0.995 --     1 C    0.977
    53   1 H    0.998 --     1 C    0.976
    54   1 H    0.995 --     1 C    0.977
    55   1 H    0.997 --     2 C    0.939
    56   1 H    0.996 --     3 C    0.981
    57   1 H    0.998 --     3 C    0.976
    58   1 H    0.996 --     3 C    0.980
    59   1 H    0.995 --     5 C    0.909
    60   1 H    0.998 --     6 C    0.974
    61   1 H    0.996 --     6 C    0.966
    62   1 H    0.998 --     7 C    0.977
    63   1 H    0.996 --     7 C    0.975
    64   1 H    0.996 --     8 C    0.969
    65   1 H    0.998 --     8 C    0.956
    66   1 H    0.997 --    10 C    0.968
    67   1 H    0.997 --    11 C    0.970
    68   1 H    0.997 --    12 C    0.970
    69   1 H    0.999 --    13 C    0.963
    70   1 H    0.995 --    19 C    0.960
    71   1 H    0.994 --    20 C    0.966
    72   1 H    0.993 --    21 C    0.966
    73   1 H    0.993 --    22 C    0.962
    74   1 H    0.996 --    29 C    0.974
    75   1 H    0.994 --    29 C    0.977
    76   1 H    0.995 --    29 C    0.965
    77   1 H    0.997 --    31 C    0.963
    78   1 H    0.995 --    32 C    0.966
    79   1 H    0.997 --    34 C    0.967
    80   1 H    0.997 --    35 C    0.969
    81   1 H    0.997 --    36 C    0.970
    82   1 H    0.998 --    37 C    0.966
    83   1 H    0.997 --    42 C    0.962
    84   1 H    0.995 --    43 C    0.966
    85   1 H    0.997 --    45 C    0.967
    86   1 H    0.996 --    46 C    0.969
    87   1 H    0.997 --    47 C    0.970
    88   1 H    0.998 --    48 C    0.965
    89   1 H    0.996 --    51 C    0.970
    90   1 H    0.996 --    51 C    0.977
    91   1 H    0.995 --    51 C    0.963
 ---------------------------------------------------------------------------

Topologies differ in total number of bonds
Writing topology from bond orders to xtbtopo.mol

molecular dipole:
                 x           y           z       tot (Debye)
 q only:        1.341      -0.524       0.853
   full:        1.345      -0.311       0.733       3.973
molecular quadrupole (traceless):
                xx          xy          yy          xz          yz          zz
 q only:        8.426      31.046      15.039     -11.677       2.940     -23.465
  q+dip:        7.963      30.959      11.560     -13.220       5.063     -19.523
   full:        5.294      29.359      15.880     -12.073       2.980     -21.174

           -------------------------------------------------
          |                Geometry Summary                 |
           -------------------------------------------------

      molecular mass/u    :      738.8871937
   center of mass at/Å    :       -0.0230399       0.4612885      -0.3269402
  moments of inertia/u·Å² :        0.6704547E+04   0.9999247E+04   0.1305551E+05
rotational constants/cm⁻¹ :        0.2514358E-02   0.1685890E-02   0.1291228E-02

 * 93 selected distances

     #   Z          #   Z                                           value/Å
     1   6 C        2   6 C                                       1.5236378
     2   6 C        3   6 C                                       1.5282336
     2   6 C        4   7 N                                       1.4799653
     4   7 N        5   6 C                                       1.4772973
     5   6 C        6   6 C                                       1.5347652
     6   6 C        7   6 C                                       1.5236805
     7   6 C        8   6 C                                       1.5251958
     9   6 C       10   6 C                                       1.3905956
    10   6 C       11   6 C                                       1.3815577
    11   6 C       12   6 C                                       1.3860867
    12   6 C       13   6 C                                       1.3800884
     9   6 C       14   6 C                                       1.3928474
    13   6 C       14   6 C                                       1.3919930
     4   7 N       15  15 P                                       1.6446599
    15  15 P       16  16 S                                       2.1315220 (max)
    16  16 S       17  16 S                                       2.0483520
    18   6 C       19   6 C                                       1.3915806
    19   6 C       20   6 C                                       1.3819716
    20   6 C       21   6 C                                       1.3852843
    21   6 C       22   6 C                                       1.3830028
    18   6 C       23   6 C                                       1.3948082
    22   6 C       23   6 C                                       1.3919154
    24   6 C       25   9 F                                       1.3326236
    24   6 C       26   9 F                                       1.3570262
    24   6 C       27   9 F                                       1.3371521
    15  15 P       28   7 N                                       1.6624346
    28   7 N       29   6 C                                       1.4548452
    28   7 N       30   6 C                                       1.4336553
    30   6 C       31   6 C                                       1.4062839
    31   6 C       32   6 C                                       1.3647293
    32   6 C       33   6 C                                       1.4104473
    33   6 C       34   6 C                                       1.4104280
    34   6 C       35   6 C                                       1.3668452
    35   6 C       36   6 C                                       1.4033931
    36   6 C       37   6 C                                       1.3676484
    33   6 C       38   6 C                                       1.4200591
    37   6 C       38   6 C                                       1.4120925
    30   6 C       39   6 C                                       1.3772911
    38   6 C       39   6 C                                       1.4223234
    40   6 C       41   6 C                                       1.3765321
    41   6 C       42   6 C                                       1.4070744
    42   6 C       43   6 C                                       1.3640010
    43   6 C       44   6 C                                       1.4099751
    44   6 C       45   6 C                                       1.4101115
    45   6 C       46   6 C                                       1.3665412
    46   6 C       47   6 C                                       1.4026628
    47   6 C       48   6 C                                       1.3676133
    40   6 C       49   6 C                                       1.4251723
    44   6 C       49   6 C                                       1.4196636
    48   6 C       49   6 C                                       1.4113974
    15  15 P       50   7 N                                       1.6510764
    41   6 C       50   7 N                                       1.4319844
    50   7 N       51   6 C                                       1.4558160
     1   6 C       52   1 H                                       1.0874288
     1   6 C       53   1 H                                       1.0870753
     1   6 C       54   1 H                                       1.0856495
     2   6 C       55   1 H                                       1.1016097
     3   6 C       56   1 H                                       1.0875158
     3   6 C       57   1 H                                       1.0854162
     3   6 C       58   1 H                                       1.0857333
     5   6 C       59   1 H                                       1.1014545
     6   6 C       60   1 H                                       1.0922024
     6   6 C       61   1 H                                       1.0875924
     7   6 C       62   1 H                                       1.0913989
     7   6 C       63   1 H                                       1.0903147
     8   6 C       64   1 H                                       1.0906878
     8   6 C       65   1 H                                       1.0947731
    10   6 C       66   1 H                                       1.0798778
    11   6 C       67   1 H                                       1.0788346
    12   6 C       68   1 H                                       1.0788470
    13   6 C       69   1 H                                       1.0815138
    19   6 C       70   1 H                                       1.0794026
    20   6 C       71   1 H                                       1.0785964
    21   6 C       72   1 H                                       1.0780305 (min)
    22   6 C       73   1 H                                       1.0788993
    29   6 C       74   1 H                                       1.0918145
    29   6 C       75   1 H                                       1.0898708
    29   6 C       76   1 H                                       1.0862913
    31   6 C       77   1 H                                       1.0785513
    32   6 C       78   1 H                                       1.0788510
    34   6 C       79   1 H                                       1.0795095
    35   6 C       80   1 H                                       1.0789289
    36   6 C       81   1 H                                       1.0793511
    37   6 C       82   1 H                                       1.0796189
    42   6 C       83   1 H                                       1.0780531
    43   6 C       84   1 H                                       1.0793759
    45   6 C       85   1 H                                       1.0797711
    46   6 C       86   1 H                                       1.0789580
    47   6 C       87   1 H                                       1.0792140
    48   6 C       88   1 H                                       1.0789139
    51   6 C       89   1 H                                       1.0904235
    51   6 C       90   1 H                                       1.0921979
    51   6 C       91   1 H                                       1.0898160

 * 7 distinct bonds (by element types)

   Z      Z             #   av. dist./Å        max./Å        min./Å
   1 H    6 C          40     1.0848091     1.1016097     1.0780305
   6 C    6 C          39     1.4105008     1.5347652     1.3640010
   6 C    7 N           6     1.4555939     1.4799653     1.4319844
   6 C    9 F           3     1.3422673     1.3570262     1.3326236
   7 N   15 P           3     1.6527236     1.6624346     1.6446599
  15 P   16 S           1     2.1315220     2.1315220     2.1315220
  16 S   16 S           1     2.0483520     2.0483520     2.0483520


optimized geometry written to: xtbopt.xyz


           -------------------------------------------------
          | TOTAL ENERGY             -142.084455229949 Eh   |
          | GRADIENT NORM               0.000046179002 Eh/α |
          | HOMO-LUMO GAP               2.253034799358 eV   |
           -------------------------------------------------

------------------------------------------------------------------------
 * finished run on 2024/12/16 at 16:26:59.601     
------------------------------------------------------------------------
 total:
 * wall-time:     0 d,  0 h,  2 min, 29.022 sec
 *  cpu-time:     0 d,  0 h, 19 min, 32.253 sec
 * ratio c/w:     7.866 speedup
 SCF:
 * wall-time:     0 d,  0 h,  0 min,  2.812 sec
 *  cpu-time:     0 d,  0 h,  0 min, 22.286 sec
 * ratio c/w:     7.926 speedup
 ANC optimizer:
 * wall-time:     0 d,  0 h,  2 min, 25.885 sec
 *  cpu-time:     0 d,  0 h, 19 min,  8.201 sec
 * ratio c/w:     7.871 speedup

