80
 energy: -112.374873906517 gnorm: 0.000025570738 xtb: 6.7.1 (edcfbbe)
C            1.03587161965928       -3.05880428361881       -0.75983611442675
C            2.50758440584486       -2.81192009556450       -0.66772314799062
C            3.33454087076376       -3.71170976307379       -0.01011825547782
C            4.70160918644572       -3.50700768156498        0.04709173153420
C            5.26616964595127       -2.40902967300468       -0.57457252476902
C            4.47916797921587       -1.48762241458892       -1.25470987250020
C            5.11659824707115       -0.32269220288122       -1.94153346856647
C            3.09857753868079       -1.69448001639277       -1.26181338681783
S            2.03234477198772       -0.54950448199820       -2.13113399970208
S            2.35333460059433        1.23712748910446       -1.15075031653874
P            0.56395880149731        1.47359484640683       -0.05468714611866
N            0.50094361539468        2.92924104782720        0.73890976803860
C           -0.77487596147642        3.14609281410820        1.42216354619174
C            1.65991652124674        3.79978653270508        1.07021490413233
C            1.23686044260004        4.96154261651679        1.97178178637757
C            2.21548398283008        4.39060304139137       -0.22528586360160
C            2.72153655213270        2.98132172101273        1.80519538185487
N            0.35156115757480        0.09412526591769        0.86108673785562
C            1.47035204334925       -0.44055161579450        1.62889488531388
C           -0.95401122478046       -0.04565166851397        1.43671159757515
C           -1.14920722017021        0.13225256234771        2.81828529919654
C           -2.39812169404241        0.01404564234542        3.35497135938793
C           -3.51728828315074       -0.23610971845848        2.53404698689914
C           -4.82163014313632       -0.30085706199979        3.06579768428994
C           -5.89748961640987       -0.51484004775140        2.25068602480407
C           -5.71358617501451       -0.65977405619714        0.86743782145700
C           -4.46041814057905       -0.61357965373839        0.32225753634859
C           -3.32601959604207       -0.42022691468535        1.13918315194689
C           -2.00546433877141       -0.37450022493590        0.60879290358717
C           -1.75970503133303       -0.68676753749970       -0.81062245903122
C           -1.16663617789753        0.24447099591638       -1.63502707106710
C           -1.01303124056189       -0.00362850396971       -3.01123574257952
C           -1.42109398752336       -1.19100491246137       -3.54408736544467
C           -1.96339051439484       -2.20331983504775       -2.72605339997686
C           -2.33239209590852       -3.45776416209055       -3.25387776823552
C           -2.81881297479448       -4.44202596109388       -2.44017938239572
C           -2.94499574925410       -4.21435331321229       -1.06181780675269
C           -2.60700226776657       -3.00480213110636       -0.52105640257507
C           -2.12589675997691       -1.95877966163311       -1.33723714639346
N           -0.74627579065895        1.48983180480377       -1.07255637656371
C           -0.89670240744844        2.67711952986710       -1.90932107432417
H            0.73188330869738       -3.83962363279420       -0.06826013890496
H            0.46753356367995       -2.15623628856811       -0.54730093537970
H            0.77192054946006       -3.37815216881342       -1.76813206821355
H            2.89879347423017       -4.58341568476637        0.45345801136566
H            5.33041294318829       -4.21405370080905        0.56529916225449
H            6.33513438924576       -2.26407590688141       -0.54811840820616
H            5.08590727012303        0.56524921114084       -1.30846312304966
H            6.15794010185137       -0.54180485674327       -2.16011441732512
H            4.60410780072881       -0.08780680482061       -2.87254489451297
H           -1.52031752779311        2.45804722911218        1.02389996412971
H           -1.12860934193573        4.16175008164381        1.25207189198641
H           -0.69801379105751        2.97588407719119        2.49725400632547
H            2.11913054252145        5.55535248030585        2.19470887215646
H            0.82321689222260        4.61973256274595        2.91544552962489
H            0.51977129255348        5.61180905459486        1.47961211421099
H            1.43647431089113        4.93249853352028       -0.75595900086476
H            2.61197381882641        3.61823531201814       -0.87819421794052
H            3.02049872585707        5.08387305269261        0.00080260928186
H            2.31698732039792        2.59182354190280        2.73749731483446
H            3.57812800146135        3.60579861993113        2.04232526804777
H            3.06734199412744        2.15278220767120        1.19098996562696
H            1.21318846158637       -1.45142393838335        1.94237359322396
H            2.35654519256509       -0.49310714631302        0.99733959238526
H            1.71579632379264        0.15160164886837        2.51314974286619
H           -0.30603679816009        0.35556773712375        3.45312820373459
H           -2.54673494775676        0.13165209973425        4.41755617556891
H           -4.95222707436346       -0.17092913128008        4.12974294983437
H           -6.89350018732877       -0.56374297561315        2.66268574399637
H           -6.57282493824085       -0.80625524684634        0.23115052172665
H           -4.33054309423197       -0.71723242054784       -0.74393594127101
H           -0.56357169758506        0.74485164697099       -3.64372907564621
H           -1.31112351054351       -1.37683632354041       -4.60139477461082
H           -2.21421818895676       -3.62592796568144       -4.31396537685464
H           -3.09879497500289       -5.40055302173578       -2.84899041403113
H           -3.31023114508390       -5.00579426043540       -0.42533285667104
H           -2.69818559470326       -2.84604141126233        0.54240775081447
H           -1.86727502903160        2.62698394089579       -2.39983639178208
H           -0.86668016916745        3.56234170851414       -1.27754559536625
H           -0.11616285882805        2.76733182192977       -2.66935136839760
