71
 energy: -114.612916756149 gnorm: 0.119919929075 xtb: 6.7.1 (edcfbbe)
C           -1.22156000000000        3.61201800000000       -1.11969700000000
C           -0.17148900000000        3.79600000000000       -0.02069900000000
C           -0.82190600000000        4.14854000000000        1.31926200000000
N            0.70905400000000        2.62177400000000        0.06050600000000
C            2.14169900000000        2.91300800000000       -0.12494400000000
C            2.73355900000000        3.80017300000000        0.97585900000000
C            2.45185100000000        3.52158600000000       -1.50090100000000
P            0.24003000000000        1.19568300000000        0.75384300000000
S            0.90627700000000        1.04364200000000        2.74729500000000
S            2.70814900000000        0.08023200000000        2.52319900000000
C            2.25014100000000       -1.62076000000000        2.17311100000000
C            1.27767400000000       -2.25350700000000        2.96690300000000
C            0.89021500000000       -3.57083600000000        2.71993200000000
C            1.47796900000000       -4.28301400000000        1.68297200000000
C            2.45724600000000       -3.67768500000000        0.89716800000000
C            2.86047800000000       -2.34577000000000        1.12985000000000
C            3.95458500000000       -1.75540800000000        0.27294000000000
F            5.09505100000000       -1.50730900000000        0.97858500000000
F            3.62479700000000       -0.58101800000000       -0.33253300000000
F            4.34320700000000       -2.58160900000000       -0.74479900000000
O           -1.38280200000000        1.07944700000000        0.67912900000000
C           -1.97874600000000       -0.00695800000000        1.24105000000000
C           -2.41247800000000        0.06213900000000        2.56642900000000
C           -2.89367700000000       -1.08264000000000        3.21573500000000
C           -2.93325300000000       -2.30590500000000        2.54800400000000
C           -2.52415300000000       -2.34568000000000        1.22369000000000
C           -2.10151500000000       -1.18976500000000        0.54372800000000
C           -1.88010700000000       -1.50035700000000       -0.90875800000000
C           -1.57999100000000       -3.02062000000000       -0.80573400000000
C           -2.47029700000000       -3.54665800000000        0.33060300000000
C           -3.15435800000000       -1.24657400000000       -1.75949000000000
C           -2.69075300000000       -1.28030900000000       -3.22238300000000
C           -1.30028200000000       -0.74002200000000       -3.08760500000000
C           -0.49030100000000       -0.26963500000000       -4.10993000000000
C            0.78148700000000        0.19292100000000       -3.78234800000000
C            1.19881600000000        0.22088200000000       -2.44540200000000
C            0.35311200000000       -0.21320800000000       -1.42416800000000
C           -0.86593900000000       -0.77399000000000       -1.74846000000000
O            0.76082300000000       -0.06272000000000       -0.13566100000000
H           -0.74836500000000        3.35893000000000       -2.07500300000000
H           -1.78015900000000        4.54323400000000       -1.26858000000000
H           -1.95061500000000        2.83267700000000       -0.88598800000000
H            0.39862600000000        4.68498100000000       -0.31150500000000
H           -0.06589200000000        4.29397800000000        2.09813500000000
H           -1.52343600000000        3.38367000000000        1.66240100000000
H           -1.38356800000000        5.08550400000000        1.23068100000000
H            2.67893500000000        1.95807900000000       -0.09257100000000
H            3.81952800000000        3.88158800000000        0.85266900000000
H            2.55205500000000        3.39176600000000        1.97241000000000
H            2.32563100000000        4.81607700000000        0.95108400000000
H            3.52831200000000        3.47253600000000       -1.69926300000000
H            1.94602100000000        2.98138800000000       -2.30525600000000
H            2.15794800000000        4.57367700000000       -1.57039500000000
H            0.80403200000000       -1.72527700000000        3.79200100000000
H            0.12701100000000       -4.03447900000000        3.33940500000000
H            1.17806500000000       -5.30939100000000        1.48708600000000
H            2.91381500000000       -4.25542700000000        0.09357000000000
H           -2.35083700000000        1.00135700000000        3.10999000000000
H           -3.21548100000000       -1.01839300000000        4.25207000000000
H           -3.27914600000000       -3.20100000000000        3.05513800000000
H           -1.74980900000000       -3.57288300000000       -1.73632800000000
H           -0.52495700000000       -3.17596900000000       -0.53725900000000
H           -2.01466200000000       -4.41111900000000        0.82153800000000
H           -3.47256700000000       -3.80300100000000       -0.02608300000000
H           -3.96151900000000       -1.96437400000000       -1.57843600000000
H           -3.56321000000000       -0.24982500000000       -1.53558800000000
H           -3.32378000000000       -0.64929700000000       -3.85240500000000
H           -2.66770300000000       -2.30106900000000       -3.61670200000000
H           -0.83082100000000       -0.26810800000000       -5.14045200000000
H            1.44769600000000        0.55309200000000       -4.56175100000000
H            2.18624100000000        0.60099000000000       -2.20089300000000
71
 energy: -114.629700980439 gnorm: 0.061780818062 xtb: 6.7.1 (edcfbbe)
C           -1.23432127220287        3.61452423572635       -1.12654514894544
C           -0.19350319104254        3.81021454574582       -0.02848725881585
C           -0.82552726403484        4.14556151830424        1.32119408127812
N            0.70024579680743        2.64756234443842        0.02972059312446
C            2.14552596298701        2.90738839536348       -0.12908502702499
C            2.72335282220082        3.79293290278111        0.97769720865024
C            2.44313220379985        3.51688902858981       -1.50215591448401
P            0.23577349001135        1.23125850649695        0.72415498762557
S            0.88633319156522        0.91491190384388        2.71764839858740
S            2.73517926077728        0.05698252851913        2.49406169157876
C            2.24377249025431       -1.63424785552002        2.16547996645947
C            1.27478401593429       -2.24851558234198        2.95498596470433
C            0.89022184985352       -3.55704910774355        2.70988605339391
C            1.47973591677892       -4.26939248159642        1.67763536031017
C            2.45768967527896       -3.67254168152520        0.89763235863219
C            2.85037664495943       -2.35391429820957        1.12966635866562
C            3.94589361210746       -1.75983628747566        0.28342758891708
F            5.06940212009566       -1.50489830305347        0.99147814207130
F            3.60433848898253       -0.58949124421329       -0.30561799026265
F            4.32290194012205       -2.57443108521135       -0.72757042539821
O           -1.37251438322759        1.11435324851592        0.66961868032081
C           -1.96496364006984       -0.00177419245305        1.24814195441375
C           -2.39093936874273        0.05861659145480        2.57463993941043
C           -2.89049585741918       -1.07112726948311        3.20914110187695
C           -2.93247981110349       -2.28933978010842        2.54394728433384
C           -2.53408539942991       -2.33464264992074        1.22275631210828
C           -2.09556741496338       -1.18827600633119        0.54724231907499
C           -1.88189290061825       -1.50389085737028       -0.90987834876388
C           -1.57481238208363       -3.02293826872089       -0.82337554758660
C           -2.45990352212340       -3.53064018754035        0.32452214639303
C           -3.16559607229431       -1.25571610345815       -1.74625528943374
C           -2.68350029018168       -1.27696812512400       -3.20317579401510
C           -1.28583949064108       -0.75177495821701       -3.08439935223001
C           -0.47832316838143       -0.27402522414015       -4.09730113551015
C            0.78863334083544        0.18843464143124       -3.77098909699813
C            1.19733235407330        0.23624283076844       -2.44513619893924
C            0.36232696496348       -0.21128189363658       -1.42356165270233
C           -0.86150159423708       -0.77401997910297       -1.74784734717548
O            0.77547864818973       -0.04488850542945       -0.10749293283306
H           -0.74955993343796        3.35658423558531       -2.06825493635626
H           -1.78577048409993        4.54277751288270       -1.26980153380620
H           -1.94549799767182        2.82964872938398       -0.87749722089927
H            0.41902826787998        4.66880840403063       -0.31404773107002
H           -0.06362030607191        4.28271917810440        2.08925308344149
H           -1.51903045720925        3.37331596657247        1.65017053393424
H           -1.38224079778237        5.07810429430739        1.23278572141920
H            2.65543227114803        1.93612658815829       -0.08347397302615
H            3.80249515566475        3.86848824435401        0.84721524806743
H            2.53818338337294        3.38185148383188        1.96906806825060
H            2.31786906822603        4.80355015561225        0.94342757919979
H            3.51545228146307        3.46334789400243       -1.68647480631293
H            1.93441956805483        2.97588433485983       -2.29788404483221
H            2.15351220050885        4.56507150330954       -1.56030244064083
H            0.81506241984078       -1.71163944535394        3.77463414387402
H            0.13941011023337       -4.01984995201384        3.33556706933391
H            1.18836943533707       -5.29279688479832        1.48544793938195
H            2.92018510789146       -4.23924185128832        0.10025753658301
H           -2.33104032242075        0.99539481665893        3.11084552638731
H           -3.21492778153378       -1.00562353539067        4.23794663024781
H           -3.26883419893428       -3.18303773651985        3.05053095182338
H           -1.75106814455833       -3.55534855501533       -1.75772276273027
H           -0.52269384359702       -3.16178190778761       -0.55130098495008
H           -2.02530490962015       -4.39837519510571        0.82140135929130
H           -3.45777988291122       -3.80026622093584       -0.02680496054273
H           -3.95776244334115       -1.97869925661437       -1.55339500401273
H           -3.55811767684389       -0.25989941835339       -1.51562674564680
H           -3.30724073809210       -0.65762438261760       -3.84813895181968
H           -2.67182510362628       -2.29064586047760       -3.60873295127287
H           -0.82457087033797       -0.26164641466194       -5.12121158119203
H            1.45180429660483        0.54411599144840       -4.54657009958883
H            2.17900055808339        0.61043598977905       -2.19711369334745
71
 energy: -114.634887672864 gnorm: 0.028026930625 xtb: 6.7.1 (edcfbbe)
C           -1.25143186823897        3.61950283918317       -1.12956557832973
C           -0.21195863190769        3.81775455309187       -0.03571426640336
C           -0.83203931919290        4.14093832738335        1.31865830181010
N            0.68606477599285        2.65487658180127        0.00412894278195
C            2.14015867601603        2.89412950180797       -0.13321365374137
C            2.70958750080346        3.77463145936344        0.97823237962682
C            2.44115210675087        3.50374145714033       -1.50148224325002
P            0.23329694558369        1.24684984022536        0.70126966498850
S            0.85200603576373        0.89986420377698        2.70194933849418
S            2.68392620034007        0.05236396950466        2.43490949588960
C            2.24475057161599       -1.65681951466881        2.15704063614022
C            1.27626718604929       -2.25236550492807        2.94487130786213
C            0.89145460263280       -3.55496750321676        2.70027448537871
C            1.48055442361671       -4.26933926139825        1.67051970945491
C            2.45970402543808       -3.68144030739428        0.89160689880184
C            2.84713587358620       -2.37169762338380        1.12576739477664
C            3.93951965780557       -1.76305318989896        0.28913333482831
F            5.04274405753051       -1.49713541970356        1.00424399062121
F            3.57973231343408       -0.59456720042674       -0.28021006244854
F            4.31230527556953       -2.55922018778133       -0.71700372547986
O           -1.35450696496922        1.14520951716599        0.66176989676199
C           -1.94743641401964        0.00406822841468        1.25357163025947
C           -2.36519933573556        0.06384780792402        2.57959430396220
C           -2.87679524879179       -1.05628212439705        3.20477910783481
C           -2.92308369356638       -2.27276632547865        2.54089341643705
C           -2.52854535601933       -2.32396368290163        1.22227328935039
C           -2.08075520408284       -1.18165271540770        0.55132293627437
C           -1.87303115458937       -1.49988605909645       -0.90578746366892
C           -1.56522803805273       -3.01749266877678       -0.82894072542506
C           -2.44949586958639       -3.51789446607652        0.32051053390958
C           -3.16145629287626       -1.25571432524474       -1.73309233584257
C           -2.67539656579857       -1.27411653672949       -3.18731438608992
C           -1.27413846151329       -0.75466538493663       -3.07632340244873
C           -0.46719291743439       -0.27291889754365       -4.08336127408388
C            0.79818445852294        0.18999063026362       -3.75776044548084
C            1.20333424839292        0.24855439992055       -2.43904256214501
C            0.37326991386771       -0.20809511011955       -1.42141509558987
C           -0.85217907711051       -0.76908137397401       -1.74230723702129
O            0.79104719139579       -0.03565355767822       -0.07856531991466
H           -0.76054783736257        3.35656438978447       -2.06234360013611
H           -1.80306345679466        4.54236600432953       -1.27341457372968
H           -1.94816285725867        2.83018562760576       -0.86732572124826
H            0.42889056470056        4.65575356517798       -0.31954679882116
H           -0.06279174895781        4.26638561666561        2.07667037354069
H           -1.51783479012236        3.36051583719276        1.63428474526686
H           -1.38706395365509        5.07092966657833        1.23912023296930
H            2.62060363639197        1.90795216215749       -0.07553417379969
H            3.78517286890994        3.84773812933261        0.84746627587345
H            2.51579026324679        3.35765721190048        1.96328033447116
H            2.30218891037787        4.78060682061228        0.93732929438555
H            3.51014255768766        3.44931481219991       -1.68221746434182
H            1.92526881317955        2.96519492621388       -2.28982430097519
H            2.15124393284289        4.54891960848231       -1.54743279163039
H            0.82087407335805       -1.69774463922079        3.75084678148840
H            0.14243797044777       -4.01164610964184        3.32596779210118
H            1.19156819142822       -5.28929134995311        1.48050797858542
H            2.92745764255479       -4.23894406894778        0.09767536236660
H           -2.29021223133047        0.99796328514082        3.11214281523566
H           -3.20892700789777       -0.98751023289516        4.22700586050794
H           -3.26449734286717       -3.16303677793218        3.04437745255107
H           -1.75480917531911       -3.53000047307188       -1.76704858066173
H           -0.51427988826961       -3.15127934769882       -0.56382182494922
H           -2.03102890407261       -4.38870163924200        0.82308422020663
H           -3.44532904964110       -3.79448296113841       -0.03073336480591
H           -3.93530560632396       -1.99017020085133       -1.53169355244000
H           -3.55336605967865       -0.26590550072577       -1.49454546846095
H           -3.29226704199063       -0.66176618197153       -3.84336000566036
H           -2.67309829344382       -2.28547146228889       -3.59826569761157
H           -0.81449075790614       -0.26146787093227       -5.10392642599228
H            1.46092882376306        0.53871579415138       -4.53198189540752
H            2.17818412678006        0.62512098318015       -2.18296349776013
71
 energy: -114.636389054593 gnorm: 0.014621384397 xtb: 6.7.1 (edcfbbe)
C           -1.26865429952263        3.62532727476484       -1.13226991861025
C           -0.22282309322570        3.82102679806607       -0.04394223193356
C           -0.83669056008860        4.13492094870722        1.31434974916459
N            0.66857645868205        2.64985721651899       -0.01075234969647
C            2.12612510499043        2.87793128561403       -0.13805437251397
C            2.69272673707188        3.74910428609758        0.98009622174382
C            2.44115184974242        3.48691748271735       -1.50239566596954
P            0.21919527355132        1.24692133369695        0.68925820024754
S            0.85370927262624        0.86066321187477        2.67921077453664
S            2.70334430856984        0.04123018519226        2.43989229120272
C            2.22861034894947       -1.65220593022346        2.13810858125128
C            1.26286957132221       -2.24720727881792        2.93097249053495
C            0.88501177966150       -3.55462481154071        2.69256530721453
C            1.47664832102301       -4.27274223882546        1.66645837401083
C            2.45886102460721       -3.68822616069552        0.88710018741794
C            2.83943969316477       -2.37457015799729        1.11682286973577
C            3.93440945984626       -1.75904583648598        0.28728572209961
F            5.02392698342630       -1.48169160505125        1.01374770805469
F            3.56433016470268       -0.59292201459392       -0.28024597554426
F            4.31773657739802       -2.54722937564316       -0.71429092508974
O           -1.35500618730132        1.16110861138968        0.65092766271677
C           -1.94429001775046        0.01137979569580        1.25182454816460
C           -2.34718920760000        0.07669401468534        2.58053313618931
C           -2.86123217860394       -1.04207549138296        3.20665684937842
C           -2.91521786686853       -2.25924753940960        2.54211286753330
C           -2.51687420941323       -2.31546516187153        1.22443507708787
C           -2.07065201467675       -1.17283740233835        0.55290445898380
C           -1.86131957698745       -1.49220874264145       -0.90073937693626
C           -1.55526683841734       -3.00928472559324       -0.82657822608575
C           -2.43930840949915       -3.50962941733889        0.32210913709028
C           -3.15075978940911       -1.25180450636567       -1.72539034925145
C           -2.66740050709413       -1.26962186535345       -3.17986896661486
C           -1.26544445833291       -0.75067857957304       -3.07050952851670
C           -0.45488911316343       -0.27083007792255       -4.07608561688060
C            0.81035954782532        0.19497532959663       -3.74882070832437
C            1.21349534182053        0.25772200620940       -2.42905071831524
C            0.37895392300316       -0.20157103076786       -1.41861079883408
C           -0.84335536104000       -0.76246612789649       -1.73663471929291
O            0.79250274480713       -0.03145738623682       -0.06322207056664
H           -0.78211110392912        3.36064732036992       -2.06663303357245
H           -1.82438137840753        4.54582118778930       -1.27597466615421
H           -1.96197519821283        2.83541801052232       -0.86353851899192
H            0.42131402202044        4.65557472433749       -0.32818483437501
H           -0.06307837762295        4.25040019492539        2.06931731076732
H           -1.52098837832510        3.35105141051201        1.62371574385999
H           -1.39234660144639        5.06572108933615        1.24778564303434
H            2.59066859697099        1.88503694902690       -0.07537970915583
H            3.76922802599754        3.82020606140371        0.85587538838606
H            2.49060763026070        3.32627649111101        1.96103059359545
H            2.28543500163120        4.75520431141303        0.94005538150069
H            3.51006091521928        3.42790926412994       -1.68197376623629
H            1.92108706837911        2.95467499497080       -2.29219819822259
H            2.15528005658511        4.53364727131382       -1.54242758376782
H            0.81363096249231       -1.68715212428177        3.73634447380392
H            0.13561964873438       -4.01028805944318        3.31847172031570
H            1.18665912129898       -5.29260292893969        1.47729932249688
H            2.93311514093861       -4.24582143356110        0.09641866177290
H           -2.25327060125491        1.01005513952922        3.11281910377960
H           -3.19391636822769       -0.97070244197366        4.22859962428210
H           -3.26351491219697       -3.14686855253423        3.04548434415221
H           -1.75363281521738       -3.51353881927335       -1.76723652788742
H           -0.50331053279357       -3.14736512240782       -0.57034427846768
H           -2.02362818265059       -4.38059094516238        0.82693010649449
H           -3.43504702378791       -3.78592294070602       -0.03173198232942
H           -3.91496467192108       -1.99538914578799       -1.52049361822546
H           -3.55119888715332       -0.26718410786244       -1.48149611755516
H           -3.28230192419753       -0.65616391498635       -3.83686878757296
H           -2.66852106226255       -2.28205718528439       -3.58982086552348
H           -0.79987855061128       -0.26240262282034       -5.09728047840738
H            1.47460780137100        0.54152600570315       -4.52300230792890
H            2.18514378052197        0.63874360236967       -2.16547083925155
71
 energy: -114.637305541345 gnorm: 0.008546047286 xtb: 6.7.1 (edcfbbe)
C           -1.28704709029785        3.62863460499152       -1.13595632907172
C           -0.23219268930108        3.81811864109028       -0.05363956779421
C           -0.84001277263324        4.12710758430268        1.30862043756600
N            0.65385500676632        2.64029596181582       -0.02430311759971
C            2.11201167895619        2.86045514210632       -0.14511004476290
C            2.67413874307447        3.72035189262046        0.98273311969093
C            2.43931253197289        3.46986246789521       -1.50575516433922
P            0.21325431473757        1.24110264453810        0.68546569833985
S            0.82820993590932        0.87920621628843        2.68592833131534
S            2.67127160127903        0.04853612263282        2.41451969037869
C            2.21557022213317       -1.65249155490162        2.12340100185433
C            1.24733618380448       -2.24914327810507        2.91572796953525
C            0.87373499922421       -3.55930523221256        2.67903194444621
C            1.47196208298810       -4.28032774840606        1.65848752039320
C            2.45735995680208       -3.69686818723621        0.88019294657992
C            2.83291044689304       -2.37901784031403        1.10753524331339
C            3.92854838683219       -1.75539570471542        0.28309961342549
F            5.00802796125672       -1.46420079822046        1.02028472494969
F            3.54809991136744       -0.59175230657835       -0.28732892220302
F            4.32860956076740       -2.53754638239709       -0.71593683302408
O           -1.35143376808244        1.16916660688982        0.64536750329965
C           -1.93763736624439        0.01734359242789        1.25350692195610
C           -2.32795488617269        0.09053007529974        2.58446171421924
C           -2.84412987968907       -1.02776979361219        3.21319536569411
C           -2.90697276805424       -2.24525211566362        2.54749807264986
C           -2.50442255585710       -2.30696989531523        1.23030738857997
C           -2.05915138879095       -1.16450269849929        0.55670804939154
C           -1.84815911093928       -1.48370320247230       -0.89433753610919
C           -1.54361614467283       -3.00094287092732       -0.82201522600293
C           -2.42556068159144       -3.50149946764842        0.32842564835258
C           -3.13856220624356       -1.24745039872157       -1.71810810572084
C           -2.65661105906963       -1.26168014544790       -3.17322692881579
C           -1.25405196838320       -0.74400125794469       -3.06459581994119
C           -0.43881094021362       -0.26759807205015       -4.06927157900770
C            0.82581316632563        0.20137231343300       -3.74013938964315
C            1.22791958184820        0.26543731985491       -2.41824081748099
C            0.38802189405271       -0.19558419816715       -1.41442575339740
C           -0.83197227453936       -0.75580546748918       -1.72989682621832
O            0.79683837948213       -0.03039878814288       -0.05193170211753
H           -0.80996270342074        3.36482341769874       -2.07629898979519
H           -1.84393703144563        4.55049225044908       -1.27493358934512
H           -1.98251301808603        2.84127164535127       -0.86383061178394
H            0.40917664305186        4.65315977560141       -0.33986203195705
H           -0.06361365966167        4.23373873506430        2.06282649301593
H           -1.52690440103799        3.34402123955154        1.61510021354357
H           -1.39430714153035        5.06050615304896        1.25369613990280
H            2.56716610105910        1.86420219969769       -0.08172171717638
H            3.75246013509635        3.78892640504923        0.86824407835803
H            2.46280345162779        3.28997124775087        1.95916491410834
H            2.26871956730995        4.72809347934988        0.94798977725285
H            3.50885593567032        3.40127152162555       -1.68188740483420
H            1.91687616791940        2.94575633224844       -2.30052054953968
H            2.16256394920111        4.52005961801697       -1.54259753614604
H            0.79409223336843       -1.68470396852740        3.71618013923502
H            0.12440663151743       -4.01588130437447        3.30566437199264
H            1.18544917179212       -5.30291053945035        1.47341524668240
H            2.93963747707488       -4.25653919044835        0.09406429204350
H           -2.22039477973374        1.02415533187663        3.11537452864463
H           -3.17132034909800       -0.95483976766134        4.23745228210495
H           -3.26049265387752       -3.13016468598280        3.05273938497105
H           -1.74751380844573       -3.50215729586148       -1.76413435365827
H           -0.49010193836598       -3.14408142743318       -0.57342043488844
H           -2.00782567420997       -4.37109700262544        0.83380807831010
H           -3.42133543087748       -3.77697175202252       -0.02666172975911
H           -3.89765257051473       -1.99744600998278       -1.51271883620932
H           -3.54803565417716       -0.26683818958194       -1.47047856625907
H           -3.27096342652765       -0.64449754780992       -3.82730606166841
H           -2.65951143579553       -2.27438632075648       -3.58306078326721
H           -0.78016407360344       -0.26179706510597       -5.09215979714047
H            1.49148839001886        0.54753121161376       -4.51432249285436
H            2.19834890000435        0.64801772263109       -2.15008269656719
71
 energy: -114.637754556073 gnorm: 0.008479282306 xtb: 6.7.1 (edcfbbe)
C           -1.30456718492887        3.63147368134143       -1.13907919912840
C           -0.24138375859178        3.81369286477337       -0.06255871049569
C           -0.84324657207455        4.12232368297202        1.30297261229315
N            0.63993523714428        2.63250968379653       -0.03820034501057
C            2.09834244226228        2.84696757805955       -0.15294163911727
C            2.65891866470803        3.69488632697338        0.98448165128186
C            2.43797219055123        3.45941798728135       -1.50895918834655
P            0.20308691957848        1.23822074154223        0.68439942918915
S            0.82858493049622        0.89963141038572        2.68360848889960
S            2.66097885562463        0.04558273544558        2.41725287111790
C            2.20121831237999       -1.65185426037621        2.11331102164010
C            1.22740081324570       -2.25164837503067        2.89886440669204
C            0.85967896381923       -3.56347938797234        2.66228094174384
C            1.46780490490031       -4.28530183086755        1.64813708835160
C            2.45461014865941       -3.69906221254757        0.87333679567742
C            2.82488258101107       -2.37861420057552        1.10009151729965
C            3.92242010775023       -1.75212268698388        0.28004246880244
F            4.99559821075722       -1.44808130059213        1.02481558405392
F            3.53832959032749       -0.59349821290278       -0.30239091487132
F            4.33936955062781       -2.53640861380945       -0.71313425259670
O           -1.35890056519263        1.17204763850396        0.64017647795182
C           -1.93895603268547        0.02268619414703        1.25518563674063
C           -2.31915545844295        0.10132773346080        2.58833844501031
C           -2.82822899757797       -1.01833682898514        3.22220735449610