99
 energy: -158.822458188316 gnorm: 0.000098681996 xtb: 6.7.1 (edcfbbe)
C           -5.63671504198312       -2.10523520128972       -3.24263762585095
O           -5.67729319753465       -1.93419726186654       -1.84374220409277
C           -4.63267477852913       -2.35830052080381       -1.09897416157983
C           -3.45370353289802       -2.90035051282619       -1.60469043842326
C           -2.43761428284022       -3.27493924529217       -0.74313926359400
C           -2.56363315157368       -3.12044701800824        0.63352509882906
C           -1.47421800088300       -3.49275924027347        1.54777684341675
C           -1.72168899537135       -4.20200775165870        2.72023522255441
C           -0.70525563028754       -4.48443512638347        3.61794786544457
C            0.58427890694188       -4.08734638874697        3.32731889660124
C            0.87515635966638       -3.41861997000098        2.13503796347567
C           -0.15549854905915       -3.10948491837721        1.27416047441928
O            0.09708242028906       -2.30422810565702        0.14104949176935
P            0.03742228221313       -0.74165066023143        0.36852076034471
Se          -1.54313784120216       -0.03093477034732        1.86382266422289
S           -3.32317884932120        0.68288107608222        0.91034826775972
C           -3.03392405691507        2.41513463487220        0.53111860494426
C           -3.91203612278117        2.98279875482957       -0.38466622480717
C           -3.73505574202572        4.29425433669396       -0.78364086408075
C           -2.67848848878636        5.03065907030450       -0.26245550740921
C           -2.40035458239899        6.41966583883407       -0.76966044783246
F           -1.46696275173728        6.38397449996982       -1.74939516346161
F           -1.91556888736414        7.23319383491446        0.17347358031963
F           -3.47413860780941        7.01352045921941       -1.29455776002154
C           -1.82279762959840        4.47508561236753        0.67923705051181
C           -2.00713024449690        3.16476110010360        1.08086747709040
N            0.44716853674174       -0.08697047530032       -1.09290604504347
C           -0.42175342912782        1.03756409191019       -1.47924990958509
C           -1.75260535556957        0.58559309646536       -2.07742908534168
C            0.25681935138528        2.06136106971648       -2.37641278335983
C            1.17674366392695       -0.95777020149795       -2.03901075335054
C            2.38560202787087       -0.25250906374196       -2.64656200973203
C            0.30731749277193       -1.58941175741750       -3.11845429582979
O            1.10266353056669       -0.41541327530057        1.50271991948052
C            2.46308977056695       -0.68210986716241        1.22773156338375
C            3.28316143138690        0.35635141353851        0.76497277506541
C            2.79492202005900        1.74199199593968        0.72718860368090
C            1.98267180819591        2.24071144079545        1.74923883697735
C            1.50844324753631        3.53077879374760        1.71117169411456
C            1.82797111101089        4.37986082360201        0.64712129597879
O            1.26946361788051        5.61084798082326        0.68605672341825
C            1.59963703495305        6.55134800308526       -0.31490532200096
C            2.67336161346078        3.90802666127708       -0.35298662678165
C            3.14917461781230        2.60977588146330       -0.30273285501280
C            4.57678793713523        0.02944685999349        0.35875620743485
C            5.02774436907603       -1.28054824933575        0.35369154439565
C            4.21093455283002       -2.27693713628168        0.84844374622362
C            2.93902801246771       -1.97182855607854        1.33968053712987
C            2.35745967108513       -3.18541870453553        2.01788841585824
C            2.77379213630498       -3.20886860504802        3.51230342480917
C            1.81794682103962       -4.21445871939528        4.16611594711607
C            3.07208310073195       -4.32274486626679        1.24918180157997
C            4.46248058305973       -3.75209617506261        0.93208109056065
C           -3.76071119578970       -2.60247493624491        1.13538318500415
C           -4.77421274816779       -2.22319585137373        0.28644808228352
H           -5.53345088209954       -3.15947651624033       -3.51485483417506
H           -4.82311648149680       -1.52806692540716       -3.69385334596912
H           -6.58990889791903       -1.73162113347185       -3.61142297857573
H           -3.32186330212435       -3.04823801356585       -2.66510155181496
H           -1.54433680954853       -3.72788584320331       -1.14800994335066
H           -2.73086452745062       -4.51998514910731        2.92926699613556
H           -0.92308677671379       -5.00027288522257        4.54001288648322
H           -4.72384947523148        2.39412188593718       -0.78181428718533
H           -4.40784911818509        4.74104157889418       -1.49883313002877
H           -1.01462170767053        5.06149036648096        1.08850740008914
H           -1.34188884712920        2.73611891511984        1.81716904248708
H           -0.62510392742209        1.54305027981177       -0.52112602279217
H           -2.16525625235058       -0.25169940031146       -1.51237653101697
H           -1.63852148641022        0.28210726953067       -3.11265572526343
H           -2.46082112080541        1.40979772479283       -2.04570891351412
H            0.35025048854930        1.69712315463423       -3.39451790789867
H            1.23576359614771        2.32256719025290       -1.98793256046522
H           -0.35607061458166        2.95969981556784       -2.39640972133951
H            1.57471201623676       -1.76098277231751       -1.41053453655830
H            2.93370910629680        0.28461630593215       -1.88023651765138
H            2.10438793547887        0.43354905170468       -3.43726012016058
H            3.04417380192255       -1.00607578125921       -3.07145934423840
H            0.87292094754004       -2.38145297478566       -3.60305307777066
H           -0.59106716738999       -2.02285415333778       -2.68769420888986
H            0.03234125097763       -0.86465919360246       -3.87916642533638
H            1.74948502435413        1.61996202962569        2.60068467720272
H            0.90178190099028        3.92093721518636        2.51330061389368
H            1.27583692028918        6.21237963899661       -1.30323286539015
H            2.67254910659089        6.75937270386745       -0.32701400976218
H            1.05880548257114        7.45826037631055       -0.05170225179798
H            2.96792929454299        4.54293042064184       -1.17322105382695
H            3.80321667979140        2.27066842324601       -1.09314309079176
H            5.23302551565199        0.81985245215356        0.02982404011345
H            6.01276401444975       -1.51418449404211       -0.01913818343814
H            2.61514034490689       -2.21747080993831        3.94117405337196
H            3.82022208873664       -3.47235858376889        3.64117677992930
H            1.62726304772927       -3.98918531559947        5.21455754789595
H            2.21160584715270       -5.23185844302631        4.11194873604737
H            3.11405774406397       -5.24261079889326        1.82687887514635
H            2.53146933623934       -4.52528211462627        0.32222200427504
H            5.17578183896980       -3.97395471685277        1.72844957572790
H            4.87417946591153       -4.14874532274372        0.00434210871352
H           -3.88490049890936       -2.48552223661610        2.20204020996373
H           -5.69685123792159       -1.81709941940641        0.66751328219622
