77
 energy: -112.516464308977 gnorm: 0.000031685880 xtb: 6.7.1 (edcfbbe)
C            1.71111843977862        1.62389241879345       -2.55296605058091
C            0.25488683038596        1.33671017076110       -2.34227723132343
C           -0.63987157186870        1.50263031325507       -3.39311208180720
C           -2.00125243432102        1.30293976867526       -3.23005647240839
C           -2.48854464120370        1.07320871975789       -1.96071311160927
C           -1.61995802185371        0.97224865398239       -0.87004775594405
C           -0.25543213933100        0.97931850585146       -1.09186283713619
O            0.64361711678600        0.58685199206691       -0.06164368700321
P            0.72227760752190       -0.95374180986404        0.35460539872152
S            2.06372362437803       -0.78127291126389        1.99750852424765
S            1.38370002514628        0.85480889834046        3.00184806893231
C            1.93175567823517        2.19606279834994        1.95948536334586
C            3.17414418120691        2.20256176951038        1.34677170029602
C            3.51375234025046        3.25918412388960        0.51828756603978
C            2.62947934276602        4.30311244139728        0.30330467468425
C            1.40162856951693        4.27545219877168        0.94242685997009
F            0.52561411595401        5.26984469803530        0.73600383335810
C            1.03315818686391        3.23372381520863        1.77401328924608
N            1.05853674516314       -2.01267469596213       -0.84597288779702
C            0.05931202011751       -3.02907724016903       -1.25915877229884
C           -0.31978555615665       -4.02638517186388       -0.16640383504889
C           -1.16423635552120       -2.37720682730129       -1.89273250742169
C            2.43062993881354       -2.20156673287779       -1.39227159990302
C            3.36350821907894       -1.10431778271300       -0.88387357811535
C            3.00554490184680       -3.54539105235875       -0.93774833471259
C            2.36175253509662       -2.13681993933660       -2.92513378366518
O           -0.69171368607019       -1.40866521982950        0.86189617121801
C           -1.27941118431576       -0.72080881950744        1.95380513952600
C           -1.11708831015135       -1.20044033182176        3.25369762873456
C           -0.42740672440209       -2.49578808685898        3.55174440163249
C           -1.63447346888339       -0.43582815828056        4.29472112325345
C           -2.25693384253381        0.78052726875607        4.06959392723867
C           -2.43212329626424        1.21398396766748        2.77084400518963
C           -1.97435112251310        0.44355468666154        1.70206913020014
C           -2.42766072343301        1.03443777373001        0.39943018342671
C           -3.77212106473117        0.42590128474783       -0.06608399534502
C           -3.91023316653163        0.88716077578250       -1.52389815797702
C           -2.63698582358524        2.52077435738398        0.79834593462884
C           -3.06397108717607        2.47697376049172        2.27172463084053
H            2.20264391472915        1.84445909603941       -1.60809112348800
H            2.22434453583149        0.79700441435800       -3.04019467884569
H            1.81023315957223        2.49347673384610       -3.19919753817698
H           -0.25044807868915        1.77446717675028       -4.36210933236516
H           -2.66953063922406        1.36814188600633       -4.07395138302547
H            3.86703701642724        1.39145142636717        1.51083800421402
H            4.47980662422254        3.26863369652995        0.03821401284720
H            2.87857071891635        5.12945776821916       -0.34226786836846
H            0.07521446999944        3.23169266574113        2.26834231072647
H            0.56118790066962       -3.59178611235967       -2.04548721237591
H            0.55143175699724       -4.30418069825876        0.42114755356804
H           -0.71438376092828       -4.92611979243285       -0.63247585210211
H           -1.08440552836838       -3.63262091711300        0.49431663846544
H           -0.86600412063778       -1.66581084001242       -2.65975059028325
H           -1.77546793552538       -3.14762640696100       -2.35598175482487
H           -1.77155488871925       -1.85958760526100       -1.15777056112845
H            3.68300520106439       -1.31287306408565        0.13407067125363
H            4.25650461994325       -1.07437367843133       -1.50325840864437
H            2.89585374680763       -0.12606835413306       -0.92448569164145
H            2.44349652828750       -4.38943821332909       -1.32563809719559
H            4.02781605849253       -3.63279045427567       -1.29533396326463
H            3.01758846727374       -3.60152912750090        0.14911601317513
H            1.97515591373353       -3.05408351036134       -3.35957907740392
H            3.35772274080915       -1.98600083597824       -3.33112192888105
H            1.72530190972493       -1.31572212470619       -3.24350111713744
H           -1.15305277342536       -3.21339613460008        3.93287175949679
H            0.33080267533223       -2.35371048604439        4.31941902757597
H            0.04102078386966       -2.92272480203920        2.66861223364121
H           -1.51592853371227       -0.79811394781396        5.30376452083332
H           -2.60572088671645        1.37553325492177        4.89876526723544
H           -3.71433966551177       -0.66357051338663       -0.01924961344409
H           -4.60058730663410        0.74731068514021        0.56008445471461
H           -4.45961213857869        1.82760630963323       -1.59676829991815
H           -4.42991169610500        0.15679181615974       -2.14378940879547
H           -1.69323775539246        3.05794461358041        0.69221025086738
H           -3.37045995946101        3.01072272684192        0.16378409279839
H           -2.73446267325855        3.35330364724119        2.82948052114633
H           -4.15021860003992        2.41824531994178        2.36879029410417
