      -----------------------------------------------------------      
     |                   =====================                   |     
     |                           x T B                           |     
     |                   =====================                   |     
     |                         S. Grimme                         |     
     |          Mulliken Center for Theoretical Chemistry        |     
     |                    University of Bonn                     |     
      -----------------------------------------------------------      

   * xtb version 6.7.1 (edcfbbe) compiled by 'conda@3ef47c1a292c' on 2024-11-25

   xtb is free software: you can redistribute it and/or modify it under
   the terms of the GNU Lesser General Public License as published by
   the Free Software Foundation, either version 3 of the License, or
   (at your option) any later version.
   
   xtb is distributed in the hope that it will be useful,
   but WITHOUT ANY WARRANTY; without even the implied warranty of
   MERCHANTABILITY or FITNESS FOR A PARTICULAR PURPOSE.  See the
   GNU Lesser General Public License for more details.
   
   Cite this work as:
   * C. Bannwarth, E. Caldeweyher, S. Ehlert, A. Hansen, P. Pracht,
     J. Seibert, S. Spicher, S. Grimme, WIREs Comput. Mol. Sci., 2020, 11,
     e01493. DOI: 10.1002/wcms.1493
   
   for GFN2-xTB:
   * C. Bannwarth, S. Ehlert and S. Grimme., J. Chem. Theory Comput., 2019,
     15, 1652-1671. DOI: 10.1021/acs.jctc.8b01176
   for GFN1-xTB:
   * S. Grimme, C. Bannwarth, P. Shushkov, J. Chem. Theory Comput., 2017,
     13, 1989-2009. DOI: 10.1021/acs.jctc.7b00118
   for GFN0-xTB:
   * P. Pracht, E. Caldeweyher, S. Ehlert, S. Grimme, ChemRxiv, 2019, preprint.
     DOI: 10.26434/chemrxiv.8326202.v1
   for GFN-FF:
   * S. Spicher and S. Grimme, Angew. Chem. Int. Ed., 2020, 59, 15665-15673.
     DOI: 10.1002/anie.202004239
   
   for ALPB and GBSA implicit solvation:
   * S. Ehlert, M. Stahn, S. Spicher, S. Grimme, J. Chem. Theory Comput.,
     2021, 17, 4250-4261. DOI: 10.1021/acs.jctc.1c00471
   
   for ddCOSMO and CPCM-X implicit solvation:
   * M. Stahn, S. Ehlert, S. Grimme, J. Phys. Chem. A,
     2023, XX, XXXX-XXXX. DOI: 10.1021/acs.jpca.3c04382
   
   for DFT-D4:
   * E. Caldeweyher, C. Bannwarth and S. Grimme, J. Chem. Phys., 2017,
     147, 034112. DOI: 10.1063/1.4993215
   * E. Caldeweyher, S. Ehlert, A. Hansen, H. Neugebauer, S. Spicher,
     C. Bannwarth and S. Grimme, J. Chem. Phys., 2019, 150, 154122.
     DOI: 10.1063/1.5090222
   * E. Caldeweyher, J.-M. Mewes, S. Ehlert and S. Grimme, Phys. Chem. Chem. Phys.
     2020, 22, 8499-8512. DOI: 10.1039/D0CP00502A
   
   for sTDA-xTB:
   * S. Grimme and C. Bannwarth, J. Chem. Phys., 2016, 145, 054103.
     DOI: 10.1063/1.4959605
   
   in the mass-spec context:
   * V. Asgeirsson, C. Bauer and S. Grimme, Chem. Sci., 2017, 8, 4879.
     DOI: 10.1039/c7sc00601b
   * J. Koopman and S. Grimme, ACS Omega 2019, 4, 12, 15120-15133.
     DOI: 10.1021/acsomega.9b02011
   
   for metadynamics refer to:
   * S. Grimme, J. Chem. Theory Comput., 2019, 155, 2847-2862
     DOI: 10.1021/acs.jctc.9b00143
   
   for SPH calculations refer to:
   * S. Spicher and S. Grimme, J. Chem. Theory Comput., 2021, 17, 1701-1714
     DOI: 10.1021/acs.jctc.0c01306
   
   for ONIOM refer to:
   * C. Plett, A. Katbashev, S. Ehlert, S. Grimme, M. Bursch,
     Phys. Chem. Chem. Phys., 2023, 25, 17860-17868. DOI: 10.1039/D3CP02178E
   
   for DIPRO refer to:
   * J. Kohn, N. Gildemeister, S. Grimme, D. Fazzi, A. Hansen,
     J. Chem. Phys., 2023, just accepted.
   
   for PTB refer to:
   * S. Grimme, M. Mueller, A. Hansen, J. Chem. Phys., 2023, 158, 124111.
     DOI: 10.1063/5.0137838
   
   with help from (in alphabetical order)
   P. Atkinson, C. Bannwarth, F. Bohle, G. Brandenburg, E. Caldeweyher
   M. Checinski, S. Dohm, S. Ehlert, S. Ehrlich, I. Gerasimov, C. Hölzer
   A. Katbashev, J. Kohn, J. Koopman, C. Lavigne, S. Lehtola, F. März, M. Müller,
   F. Musil, H. Neugebauer, J. Pisarek, C. Plett, P. Pracht, F. Pultar,
   J. Seibert, P. Shushkov, S. Spicher, M. Stahn, M. Steiner, T. Strunk,
   J. Stückrath, T. Rose, and J. Unsleber
   
 * started run on 2024/12/16 at 20:37:26.976     
   ID    Z sym.   atoms
    1    6 C      1-3, 5-8, 12-16, 20, 21, 23-43, 45
    2    7 N      4, 22, 44
    3   15 P      9
    4   16 S      10, 11
    5    9 F      17-19
    6    1 H      46-83

           -------------------------------------------------
          |                Calculation Setup                |
           -------------------------------------------------

          program call               : xtb --gfn2 --opt extreme -P 8 --charge 1 molecule.xyz
          hostname                   : node20
          coordinate file            : molecule.xyz
          omp threads                :                     8


           -------------------------------------------------
          |                 G F N 2 - x T B                 |
           -------------------------------------------------

        Reference                      10.1021/acs.jctc.8b01176
      * Hamiltonian:
        H0-scaling (s, p, d)           1.850000    2.230000    2.230000
        zeta-weighting                 0.500000
      * Dispersion:
        s8                             2.700000
        a1                             0.520000
        a2                             5.000000
        s9                             5.000000
      * Repulsion:
        kExp                           1.500000    1.000000
        rExp                           1.000000
      * Coulomb:
        alpha                          2.000000
        third order                    shell-resolved
        anisotropic                    true
        a3                             3.000000
        a5                             4.000000
        cn-shift                       1.200000
        cn-exp                         4.000000
        max-rad                        5.000000


          ...................................................
          :                      SETUP                      :
          :.................................................:
          :  # basis functions                 236          :
          :  # atomic orbitals                 233          :
          :  # shells                          131          :
          :  # electrons                       234          :
          :  max. iterations                   250          :
          :  Hamiltonian                  GFN2-xTB          :
          :  restarted?                      false          :
          :  GBSA solvation                  false          :
          :  PC potential                    false          :
          :  electronic temp.          300.0000000     K    :
          :  accuracy                    1.0000000          :
          :  -> integral cutoff          0.2500000E+02      :
          :  -> integral neglect         0.1000000E-07      :
          :  -> SCF convergence          0.1000000E-05 Eh   :
          :  -> wf. convergence          0.1000000E-03 e    :
          :  Broyden damping             0.4000000          :
          :  net charge                          1          :
          :  unpaired electrons                  0          :
          ...................................................

 iter      E             dE          RMSdq      gap      omega  full diag
   1   -129.6811101 -0.129681E+03  0.449E+00    1.73       0.0  T
   2   -129.8859624 -0.204852E+00  0.270E+00    1.88       1.0  T
   3   -129.8707661  0.151963E-01  0.137E+00    1.68       1.0  T
   4   -129.8926490 -0.218829E-01  0.664E-01    1.33       1.0  T
   5   -129.9193638 -0.267148E-01  0.282E-01    1.43       1.0  T
   6   -129.9217094 -0.234555E-02  0.145E-01    1.40       1.0  T
   7   -129.9232961 -0.158670E-02  0.485E-02    1.41       1.0  T
   8   -129.9233487 -0.526193E-04  0.242E-02    1.42       1.0  T
   9   -129.9233566 -0.793692E-05  0.116E-02    1.42       1.0  T
  10   -129.9233574 -0.783097E-06  0.715E-03    1.42       1.5  T
  11   -129.9233582 -0.846779E-06  0.402E-03    1.42       2.7  T
  12   -129.9233586 -0.369082E-06  0.225E-03    1.42       4.9  T
  13   -129.9233586 -0.186090E-07  0.112E-03    1.42       9.8  T
  14   -129.9233587 -0.316458E-07  0.509E-04    1.42      21.6  T
  15   -129.9233587 -0.306278E-08  0.250E-04    1.42      44.0  T

   *** convergence criteria satisfied after 15 iterations ***

         #    Occupation            Energy/Eh            Energy/eV
      -------------------------------------------------------------
         1        2.0000           -0.9491727             -25.8283
       ...           ...                  ...                  ...
       111        2.0000           -0.5091972             -13.8560
       112        2.0000           -0.5069814             -13.7957
       113        2.0000           -0.4994718             -13.5913
       114        2.0000           -0.4900125             -13.3339
       115        2.0000           -0.4888054             -13.3011
       116        2.0000           -0.4712858             -12.8243
       117        2.0000           -0.4576143             -12.4523 (HOMO)
       118                         -0.4055251             -11.0349 (LUMO)
       119                         -0.3750738             -10.2063
       120                         -0.3661497              -9.9634
       121                         -0.3642353              -9.9113
       122                         -0.3622497              -9.8573
       ...                                ...                  ...
       233                          1.0385838              28.2613
      -------------------------------------------------------------
                  HL-Gap            0.0520892 Eh            1.4174 eV
             Fermi-level           -0.4315697 Eh          -11.7436 eV

 SCC (total)                   0 d,  0 h,  0 min,  2.360 sec
 SCC setup                      ...        0 min,  0.000 sec (  0.013%)
 Dispersion                     ...        0 min,  0.001 sec (  0.054%)
 classical contributions        ...        0 min,  0.000 sec (  0.005%)
 integral evaluation            ...        0 min,  0.009 sec (  0.383%)
 iterations                     ...        0 min,  2.200 sec ( 93.205%)
 molecular gradient             ...        0 min,  0.120 sec (  5.065%)
 printout                       ...        0 min,  0.030 sec (  1.275%)

         :::::::::::::::::::::::::::::::::::::::::::::::::::::
         ::                     SUMMARY                     ::
         :::::::::::::::::::::::::::::::::::::::::::::::::::::
         :: total energy            -128.167996060653 Eh    ::
         :: gradient norm              0.139277280838 Eh/a0 ::
         :: HOMO-LUMO gap              1.417419034867 eV    ::
         ::.................................................::
         :: SCC energy              -129.916669843010 Eh    ::
         :: -> isotropic ES            0.126980197601 Eh    ::
         :: -> anisotropic ES          0.003105162465 Eh    ::
         :: -> anisotropic XC          0.051242753805 Eh    ::
         :: -> dispersion             -0.129742831692 Eh    ::
         :: repulsion energy           1.748673782357 Eh    ::
         :: add. restraining           0.000000000000 Eh    ::
         :: total charge               1.000000000000 e     ::
         :::::::::::::::::::::::::::::::::::::::::::::::::::::

      ----------------------------------------------------------- 
     |                   =====================                   |
     |                        A N C O P T                        |
     |                   =====================                   |
     |               Approximate Normal Coordinate               |
     |                Rational Function Optimizer                |
      ----------------------------------------------------------- 
      ----------------------------------------------------------- 
     |                   =====================                   |
     |                        A N C O P T                        |
     |                   =====================                   |
     |               Approximate Normal Coordinate               |
     |                Rational Function Optimizer                |
      ----------------------------------------------------------- 

          ...................................................
          :                      SETUP                      :
          :.................................................:
          :   optimization level           extreme          :
          :   max. optcycles                  1660          :
          :   ANC micro-cycles                  20          :
          :   degrees of freedom               243          :
          :.................................................:
          :   RF solver                   davidson          :
          :   write xtbopt.log                true          :
          :   linear?                        false          :
          :   energy convergence         0.5000000E-07 Eh   :
          :   grad. convergence          0.5000000E-04 Eh/α :
          :   maxmium RF displ.          1.0000000          :
          :   Hlow (freq-cutoff)         0.1000000E-01      :
          :   Hmax (freq-cutoff)         5.0000000          :
          :   S6 in model hess.         20.0000000          :
          ...................................................

generating ANC from exact Hessian ...
Using Lindh-Hessian (1995)
 Shifting diagonal of input Hessian by    9.9051699896593008E-003
 Lowest  eigenvalues of input Hessian
    0.000000    0.000000    0.000000    0.000000    0.000000    0.000000
    0.010000    0.010014    0.010175    0.010207    0.010257    0.010486
    0.010523    0.010688    0.011002    0.011064    0.011257    0.011319
 Highest eigenvalues
    1.940902    1.967620    2.001076    2.028490    2.066513    2.078705


........................................................................
.............................. CYCLE    1 ..............................
........................................................................

 iter      E             dE          RMSdq      gap      omega  full diag
   1   -129.9233587 -0.129923E+03  0.108E-04    1.42       0.0  T
   2   -129.9233587 -0.120053E-09  0.700E-05    1.42     156.8  T
   3   -129.9233587 -0.108230E-09  0.490E-05    1.42     224.0  T
     SCC iter.                  ...        0 min,  0.372 sec
     gradient                   ...        0 min,  0.115 sec
 * total energy  :  -128.1679961 Eh     change       -0.1451326E-08 Eh
   gradient norm :     0.1392774 Eh/α   predicted     0.0000000E+00 (-100.00%)
   displ. norm   :     0.4341420 α      lambda       -0.3074080E-01
   maximum displ.:     0.1377742 α      in ANC's #22, #35, #53, ...

........................................................................
.............................. CYCLE    2 ..............................
........................................................................

 iter      E             dE          RMSdq      gap      omega  full diag
   1   -130.0009159 -0.130001E+03  0.272E-01    1.57       0.0  T
   2   -130.0011038 -0.187911E-03  0.141E-01    1.64       1.0  T
   3   -130.0010034  0.100429E-03  0.533E-02    1.67       1.0  T
   4   -130.0011265 -0.123191E-03  0.258E-02    1.68       1.0  T
   5   -130.0011493 -0.227684E-04  0.129E-02    1.68       1.0  T
   6   -130.0011571 -0.774102E-05  0.521E-03    1.68       2.1  T
   7   -130.0011582 -0.110518E-05  0.300E-03    1.68       3.7  T
   8   -130.0011583 -0.130306E-06  0.173E-03    1.68       6.3  T
   9   -130.0011583 -0.310157E-07  0.908E-04    1.68      12.1  T
  10   -130.0011583 -0.963522E-08  0.390E-04    1.68      28.1  T
     SCC iter.                  ...        0 min,  1.421 sec
     gradient                   ...        0 min,  0.116 sec
 * total energy  :  -128.1898458 Eh     change       -0.2184977E-01 Eh
   gradient norm :     0.0617765 Eh/α   predicted    -0.1830233E-01 ( -16.24%)
   displ. norm   :     0.4465129 α      lambda       -0.1214175E-01
   maximum displ.:     0.1232738 α      in ANC's #22, #18, #16, ...

........................................................................
.............................. CYCLE    3 ..............................
........................................................................

 iter      E             dE          RMSdq      gap      omega  full diag
   1   -130.0521751 -0.130052E+03  0.195E-01    1.85       0.0  T
   2   -130.0522629 -0.878918E-04  0.104E-01    1.89       1.0  T
   3   -130.0522275  0.353992E-04  0.371E-02    1.91       1.0  T
   4   -130.0522764 -0.488140E-04  0.146E-02    1.91       1.0  T
   5   -130.0522831 -0.674727E-05  0.752E-03    1.91       1.5  T
   6   -130.0522853 -0.216262E-05  0.335E-03    1.91       3.3  T
   7   -130.0522856 -0.350306E-06  0.205E-03    1.91       5.4  T
   8   -130.0522857 -0.758059E-07  0.107E-03    1.91      10.2  T
   9   -130.0522857 -0.172671E-07  0.601E-04    1.91      18.3  T
  10   -130.0522857 -0.360245E-08  0.237E-04    1.91      46.3  T
     SCC iter.                  ...        0 min,  1.452 sec
     gradient                   ...        0 min,  0.115 sec
 * total energy  :  -128.1974911 Eh     change       -0.7645271E-02 Eh
   gradient norm :     0.0165436 Eh/α   predicted    -0.7281261E-02 (  -4.76%)
   displ. norm   :     0.4294611 α      lambda       -0.3343526E-02
   maximum displ.:     0.1666433 α      in ANC's #10, #18, #17, ...

........................................................................
.............................. CYCLE    4 ..............................
........................................................................

 iter      E             dE          RMSdq      gap      omega  full diag
   1   -130.0583470 -0.130058E+03  0.116E-01    1.97       0.0  T
   2   -130.0583788 -0.318287E-04  0.597E-02    1.99       1.0  T
   3   -130.0583731  0.569289E-05  0.207E-02    1.99       1.0  T
   4   -130.0583827 -0.956500E-05  0.861E-03    2.00       1.3  T
   5   -130.0583846 -0.192085E-05  0.396E-03    1.99       2.8  T
   6   -130.0583853 -0.698810E-06  0.166E-03    1.99       6.6  T
   7   -130.0583854 -0.100718E-06  0.785E-04    1.99      14.0  T
   8   -130.0583854 -0.311784E-07  0.392E-04    1.99      28.0  T
     SCC iter.                  ...        0 min,  1.030 sec
     gradient                   ...        0 min,  0.115 sec
 * total energy  :  -128.1999681 Eh     change       -0.2476970E-02 Eh
   gradient norm :     0.0148035 Eh/α   predicted    -0.1980122E-02 ( -20.06%)
   displ. norm   :     0.5127282 α      lambda       -0.2443598E-02
   maximum displ.:     0.2426937 α      in ANC's #10, #17, #18, ...

........................................................................
.............................. CYCLE    5 ..............................
........................................................................

 iter      E             dE          RMSdq      gap      omega  full diag
   1   -130.0605736 -0.130061E+03  0.925E-02    2.02       0.0  T
   2   -130.0606006 -0.269573E-04  0.529E-02    2.02       1.0  T
   3   -130.0605964  0.418863E-05  0.222E-02    2.02       1.0  T
   4   -130.0606055 -0.904637E-05  0.669E-03    2.02       1.6  T
   5   -130.0606058 -0.334923E-06  0.433E-03    2.02       2.5  T
   6   -130.0606066 -0.772243E-06  0.175E-03    2.02       6.3  T
   7   -130.0606066 -0.509959E-07  0.109E-03    2.02      10.1  T
   8   -130.0606066 -0.248891E-07  0.560E-04    2.02      19.6  T
   9   -130.0606067 -0.111480E-07  0.283E-04    2.02      38.8  T
     SCC iter.                  ...        0 min,  1.229 sec
     gradient                   ...        0 min,  0.115 sec
 * total energy  :  -128.2016581 Eh     change       -0.1690020E-02 Eh
   gradient norm :     0.0119942 Eh/α   predicted    -0.1543000E-02 (  -8.70%)
   displ. norm   :     0.4542532 α      lambda       -0.1359864E-02
   maximum displ.:     0.2342182 α      in ANC's #10, #18, #16, ...

........................................................................
.............................. CYCLE    6 ..............................
........................................................................

 iter      E             dE          RMSdq      gap      omega  full diag
   1   -130.0591520 -0.130059E+03  0.106E-01    2.01       0.0  T
   2   -130.0591731 -0.210828E-04  0.502E-02    2.02       1.0  T
   3   -130.0591727  0.383423E-06  0.143E-02    2.03       1.0  T
   4   -130.0591750 -0.229134E-05  0.806E-03    2.03       1.4  T
   5   -130.0591763 -0.131341E-05  0.270E-03    2.03       4.1  T
   6   -130.0591765 -0.197473E-06  0.123E-03    2.03       8.9  T
   7   -130.0591766 -0.742368E-07  0.520E-04    2.03      21.1  T
   8   -130.0591766 -0.858745E-08  0.263E-04    2.03      41.8  T
     SCC iter.                  ...        0 min,  1.131 sec
     gradient                   ...        0 min,  0.125 sec
 * total energy  :  -128.2025191 Eh     change       -0.8610408E-03 Eh
   gradient norm :     0.0085020 Eh/α   predicted    -0.8202414E-03 (  -4.74%)
   displ. norm   :     0.3641800 α      lambda       -0.7901894E-03
   maximum displ.:     0.1789185 α      in ANC's #10, #5, #18, ...

........................................................................
.............................. CYCLE    7 ..............................
........................................................................

 iter      E             dE          RMSdq      gap      omega  full diag
   1   -130.0617094 -0.130062E+03  0.633E-02    2.03       0.0  T
   2   -130.0617165 -0.718879E-05  0.349E-02    2.03       1.0  T
   3   -130.0617138  0.277714E-05  0.106E-02    2.03       1.0  T
   4   -130.0617170 -0.321144E-05  0.466E-03    2.03       2.4  T
   5   -130.0617180 -0.986748E-06  0.210E-03    2.03       5.2  T
   6   -130.0617180 -0.460939E-07  0.118E-03    2.03       9.3  T
   7   -130.0617180 -0.197405E-07  0.641E-04    2.03      17.1  T
   8   -130.0617180 -0.438621E-08  0.390E-04    2.03      28.2  T
     SCC iter.                  ...        0 min,  1.148 sec
     gradient                   ...        0 min,  0.121 sec
 * total energy  :  -128.2030467 Eh     change       -0.5275713E-03 Eh
   gradient norm :     0.0076799 Eh/α   predicted    -0.4474966E-03 ( -15.18%)
   displ. norm   :     0.2997222 α      lambda       -0.4582572E-03
   maximum displ.:     0.1370970 α      in ANC's #5, #10, #16, ...

........................................................................
.............................. CYCLE    8 ..............................
........................................................................

 iter      E             dE          RMSdq      gap      omega  full diag
   1   -130.0643185 -0.130064E+03  0.505E-02    2.04       0.0  T
   2   -130.0643212 -0.265250E-05  0.279E-02    2.04       1.0  T
   3   -130.0643172  0.397292E-05  0.971E-03    2.04       1.1  T
   4   -130.0643221 -0.486295E-05  0.303E-03    2.04       3.6  T
   5   -130.0643221 -0.976589E-07  0.153E-03    2.04       7.2  T
   6   -130.0643223 -0.148906E-06  0.591E-04    2.04      18.6  T
   7   -130.0643223 -0.240469E-07  0.238E-04    2.04      46.1  T
     SCC iter.                  ...        0 min,  0.767 sec
     gradient                   ...        0 min,  0.115 sec
 * total energy  :  -128.2033745 Eh     change       -0.3278064E-03 Eh
   gradient norm :     0.0062789 Eh/α   predicted    -0.2497133E-03 ( -23.82%)
   displ. norm   :     0.2865035 α      lambda       -0.3217042E-03
   maximum displ.:     0.1478850 α      in ANC's #5, #10, #16, ...

........................................................................
.............................. CYCLE    9 ..............................
........................................................................

 iter      E             dE          RMSdq      gap      omega  full diag
   1   -130.0652443 -0.130065E+03  0.512E-02    2.04       0.0  T
   2   -130.0652487 -0.435413E-05  0.276E-02    2.04       1.0  T
   3   -130.0652464  0.233540E-05  0.956E-03    2.04       1.1  T
   4   -130.0652490 -0.268376E-05  0.405E-03    2.04       2.7  T
   5   -130.0652495 -0.463396E-06  0.208E-03    2.04       5.3  T
   6   -130.0652498 -0.286149E-06  0.786E-04    2.04      14.0  T
   7   -130.0652498 -0.330337E-07  0.327E-04    2.04      33.6  T
     SCC iter.                  ...        0 min,  1.037 sec
     gradient                   ...        0 min,  0.115 sec
 * total energy  :  -128.2035915 Eh     change       -0.2170181E-03 Eh
   gradient norm :     0.0043380 Eh/α   predicted    -0.1740561E-03 ( -19.80%)
   displ. norm   :     0.2392782 α      lambda       -0.1995067E-03
   maximum displ.:     0.1326628 α      in ANC's #5, #9, #16, ...

........................................................................
.............................. CYCLE   10 ..............................
........................................................................

 iter      E             dE          RMSdq      gap      omega  full diag
   1   -130.0660165 -0.130066E+03  0.351E-02    2.05       0.0  T
   2   -130.0660181 -0.165804E-05  0.199E-02    2.05       1.0  T
   3   -130.0660164  0.168904E-05  0.726E-03    2.05       1.5  T
   4   -130.0660185 -0.210938E-05  0.215E-03    2.05       5.1  T
   5   -130.0660186 -0.118324E-06  0.103E-03    2.05      10.7  T
   6   -130.0660187 -0.361026E-07  0.499E-04    2.05      22.0  T
   7   -130.0660187 -0.992489E-08  0.310E-04    2.05      35.4  T
     SCC iter.                  ...        0 min,  0.815 sec
     gradient                   ...        0 min,  0.116 sec
 * total energy  :  -128.2037346 Eh     change       -0.1430372E-03 Eh
   gradient norm :     0.0036478 Eh/α   predicted    -0.1054657E-03 ( -26.27%)
   displ. norm   :     0.2563394 α      lambda       -0.1809199E-03
   maximum displ.:     0.1447524 α      in ANC's #5, #3, #9, ...

........................................................................
.............................. CYCLE   11 ..............................
........................................................................

 iter      E             dE          RMSdq      gap      omega  full diag
   1   -130.0658456 -0.130066E+03  0.364E-02    2.05       0.0  T
   2   -130.0658463 -0.639588E-06  0.207E-02    2.05       1.0  T
   3   -130.0658454  0.887020E-06  0.442E-03    2.05       2.5  T
   4   -130.0658464 -0.104116E-05  0.143E-03    2.05       7.7  T
   5   -130.0658465 -0.518676E-07  0.643E-04    2.05      17.1  T
   6   -130.0658465 -0.241133E-07  0.271E-04    2.05      40.6  T
     SCC iter.                  ...        0 min,  0.694 sec
     gradient                   ...        0 min,  0.116 sec
 * total energy  :  -128.2038792 Eh     change       -0.1446454E-03 Eh
   gradient norm :     0.0041656 Eh/α   predicted    -0.9640451E-04 ( -33.35%)
   displ. norm   :     0.3394496 α      lambda       -0.2212937E-03
   maximum displ.:     0.1865547 α      in ANC's #5, #3, #7, ...

........................................................................
.............................. CYCLE   12 ..............................
........................................................................

 iter      E             dE          RMSdq      gap      omega  full diag
   1   -130.0652809 -0.130065E+03  0.510E-02    2.06       0.0  T
   2   -130.0652817 -0.835860E-06  0.297E-02    2.06       1.0  T
   3   -130.0652804  0.133544E-05  0.545E-03    2.06       2.0  T
   4   -130.0652819 -0.156364E-05  0.185E-03    2.06       5.9  T
   5   -130.0652820 -0.844675E-07  0.748E-04    2.06      14.7  T
   6   -130.0652820 -0.301539E-07  0.305E-04    2.06      36.0  T
     SCC iter.                  ...        0 min,  0.740 sec
     gradient                   ...        0 min,  0.117 sec
 * total energy  :  -128.2040551 Eh     change       -0.1759343E-03 Eh
   gradient norm :     0.0047769 Eh/α   predicted    -0.1233970E-03 ( -29.86%)
   displ. norm   :     0.3864845 α      lambda       -0.2132800E-03
   maximum displ.:     0.2115172 α      in ANC's #5, #3, #7, ...

........................................................................
.............................. CYCLE   13 ..............................
........................................................................

 iter      E             dE          RMSdq      gap      omega  full diag
   1   -130.0646375 -0.130065E+03  0.595E-02    2.06       0.0  T
   2   -130.0646385 -0.991294E-06  0.347E-02    2.06       1.0  T
   3   -130.0646371  0.141746E-05  0.569E-03    2.06       1.9  T
   4   -130.0646387 -0.161208E-05  0.222E-03    2.07       5.0  T
   5   -130.0646388 -0.143202E-06  0.970E-04    2.06      11.3  T
   6   -130.0646389 -0.568776E-07  0.427E-04    2.07      25.7  T
     SCC iter.                  ...        0 min,  0.579 sec
     gradient                   ...        0 min,  0.116 sec
 * total energy  :  -128.2042238 Eh     change       -0.1686767E-03 Eh
   gradient norm :     0.0044994 Eh/α   predicted    -0.1225728E-03 ( -27.33%)
   displ. norm   :     0.3945163 α      lambda       -0.1878569E-03
   maximum displ.:     0.2154293 α      in ANC's #5, #3, #7, ...

........................................................................
.............................. CYCLE   14 ..............................
........................................................................

 iter      E             dE          RMSdq      gap      omega  full diag
   1   -130.0646642 -0.130065E+03  0.604E-02    2.08       0.0  T
   2   -130.0646653 -0.104233E-05  0.351E-02    2.08       1.0  T
   3   -130.0646635  0.170431E-05  0.587E-03    2.08       1.9  T
   4   -130.0646654 -0.182955E-05  0.244E-03    2.08       4.5  T
   5   -130.0646656 -0.227145E-06  0.106E-03    2.08      10.4  T
   6   -130.0646657 -0.732771E-07  0.461E-04    2.08      23.8  T
   7   -130.0646657 -0.780642E-08  0.271E-04    2.08      40.5  T
     SCC iter.                  ...        0 min,  0.916 sec
     gradient                   ...        0 min,  0.122 sec
 * total energy  :  -128.2043746 Eh     change       -0.1507432E-03 Eh
   gradient norm :     0.0037444 Eh/α   predicted    -0.1085495E-03 ( -27.99%)
   displ. norm   :     0.4011586 α      lambda       -0.1761745E-03
   maximum displ.:     0.2173534 α      in ANC's #5, #3, #1, ...

........................................................................
.............................. CYCLE   15 ..............................
........................................................................

 iter      E             dE          RMSdq      gap      omega  full diag
   1   -130.0654132 -0.130065E+03  0.596E-02    2.09       0.0  T
   2   -130.0654143 -0.107993E-05  0.347E-02    2.09       1.0  T
   3   -130.0654118  0.252145E-05  0.636E-03    2.09       1.7  T
   4   -130.0654145 -0.272432E-05  0.233E-03    2.09       4.7  T
   5   -130.0654147 -0.222732E-06  0.105E-03    2.09      10.4  T
   6   -130.0654148 -0.703320E-07  0.450E-04    2.09      24.4  T
   7   -130.0654148 -0.695843E-08  0.251E-04    2.09      43.7  T
     SCC iter.                  ...        0 min,  0.822 sec
     gradient                   ...        0 min,  0.115 sec
 * total energy  :  -128.2045181 Eh     change       -0.1435093E-03 Eh
   gradient norm :     0.0033402 Eh/α   predicted    -0.1022639E-03 ( -28.74%)
   displ. norm   :     0.4215685 α      lambda       -0.1741551E-03
   maximum displ.:     0.2229686 α      in ANC's #5, #3, #1, ...

........................................................................
.............................. CYCLE   16 ..............................
........................................................................

 iter      E             dE          RMSdq      gap      omega  full diag
   1   -130.0664168 -0.130066E+03  0.605E-02    2.10       0.0  T
   2   -130.0664181 -0.124666E-05  0.352E-02    2.10       1.0  T
   3   -130.0664143  0.382049E-05  0.731E-03    2.10       1.5  T
   4   -130.0664185 -0.419170E-05  0.216E-03    2.10       5.1  T
   5   -130.0664186 -0.191975E-06  0.110E-03    2.10      10.0  T
   6   -130.0664187 -0.762068E-07  0.420E-04    2.10      26.2  T
   7   -130.0664187 -0.532526E-08  0.207E-04    2.10      52.9  T
     SCC iter.                  ...        0 min,  0.754 sec
     gradient                   ...        0 min,  0.118 sec
 * total energy  :  -128.2046598 Eh     change       -0.1416953E-03 Eh
   gradient norm :     0.0035516 Eh/α   predicted    -0.1025562E-03 ( -27.62%)
   displ. norm   :     0.4349842 α      lambda       -0.1624084E-03
   maximum displ.:     0.2214271 α      in ANC's #5, #3, #1, ...

........................................................................
.............................. CYCLE   17 ..............................
........................................................................

 iter      E             dE          RMSdq      gap      omega  full diag
   1   -130.0670903 -0.130067E+03  0.606E-02    2.12       0.0  T
   2   -130.0670917 -0.136145E-05  0.354E-02    2.12       1.0  T
   3   -130.0670871  0.459352E-05  0.785E-03    2.12       1.4  T
   4   -130.0670922 -0.509377E-05  0.201E-03    2.12       5.5  T
   5   -130.0670923 -0.160287E-06  0.110E-03    2.12       9.9  T
   6   -130.0670924 -0.786518E-07  0.389E-04    2.12      28.2  T
   7   -130.0670924 -0.448006E-08  0.165E-04    2.12      66.4  T
     SCC iter.                  ...        0 min,  0.896 sec
     gradient                   ...        0 min,  0.135 sec
 * total energy  :  -128.2047901 Eh     change       -0.1303557E-03 Eh
   gradient norm :     0.0037409 Eh/α   predicted    -0.9657039E-04 ( -25.92%)
   displ. norm   :     0.4066178 α      lambda       -0.1328248E-03
   maximum displ.:     0.1977394 α      in ANC's #3, #5, #1, ...

........................................................................
.............................. CYCLE   18 ..............................
........................................................................

 iter      E             dE          RMSdq      gap      omega  full diag
   1   -130.0673382 -0.130067E+03  0.558E-02    2.13       0.0  T
   2   -130.0673394 -0.118856E-05  0.326E-02    2.13       1.0  T
   3   -130.0673357  0.373008E-05  0.711E-03    2.13       1.5  T
   4   -130.0673399 -0.419098E-05  0.176E-03    2.13       6.2  T
   5   -130.0673400 -0.104912E-06  0.102E-03    2.13      10.7  T
   6   -130.0673400 -0.718134E-07  0.349E-04    2.13      31.4  T
   7   -130.0673400 -0.383645E-08  0.149E-04    2.13      73.7  T
     SCC iter.                  ...        0 min,  0.888 sec
     gradient                   ...        0 min,  0.119 sec
 * total energy  :  -128.2048953 Eh     change       -0.1051717E-03 Eh
   gradient norm :     0.0035099 Eh/α   predicted    -0.7739481E-04 ( -26.41%)
   displ. norm   :     0.3587482 α      lambda       -0.1004294E-03
   maximum displ.:     0.1793039 α      in ANC's #3, #5, #1, ...

........................................................................
.............................. CYCLE   19 ..............................
........................................................................

 iter      E             dE          RMSdq      gap      omega  full diag
   1   -130.0671236 -0.130067E+03  0.492E-02    2.14       0.0  T
   2   -130.0671245 -0.916984E-06  0.287E-02    2.14       1.0  T
   3   -130.0671221  0.238955E-05  0.581E-03    2.14       1.9  T
   4   -130.0671248 -0.273259E-05  0.154E-03    2.14       7.1  T
   5   -130.0671249 -0.585308E-07  0.908E-04    2.14      12.1  T
   6   -130.0671250 -0.627136E-07  0.302E-04    2.14      36.4  T
     SCC iter.                  ...        0 min,  0.767 sec
     gradient                   ...        0 min,  0.119 sec
 * total energy  :  -128.2049738 Eh     change       -0.7846804E-04 Eh
   gradient norm :     0.0028834 Eh/α   predicted    -0.5667939E-04 ( -27.77%)
   displ. norm   :     0.3030634 α      lambda       -0.7277392E-04
   maximum displ.:     0.1553989 α      in ANC's #3, #1, #5, ...

........................................................................
.............................. CYCLE   20 ..............................
........................................................................

 iter      E             dE          RMSdq      gap      omega  full diag
   1   -130.0670829 -0.130067E+03  0.420E-02    2.15       0.0  T
   2   -130.0670836 -0.689572E-06  0.244E-02    2.15       1.0  T
   3   -130.0670824  0.119954E-05  0.441E-03    2.15       2.5  T
   4   -130.0670838 -0.139786E-05  0.142E-03    2.15       7.8  T
   5   -130.0670839 -0.509234E-07  0.744E-04    2.15      14.7  T
   6   -130.0670839 -0.457149E-07  0.252E-04    2.15      43.5  T
     SCC iter.                  ...        0 min,  0.725 sec
     gradient                   ...        0 min,  0.117 sec
 * total energy  :  -128.2050298 Eh     change       -0.5601594E-04 Eh
   gradient norm :     0.0022627 Eh/α   predicted    -0.3973097E-04 ( -29.07%)
   displ. norm   :     0.2580195 α      lambda       -0.5287316E-04
   maximum displ.:     0.1340910 α      in ANC's #3, #1, #5, ...
 * RMSD in coord.:     0.5842870 α      energy gain  -0.3703372E-01 Eh

generating ANC from exact Hessian ...
Using Lindh-Hessian (1995)
 Shifting diagonal of input Hessian by    1.0110561348597681E-002
 Lowest  eigenvalues of input Hessian
    0.010000    0.000000    0.000000    0.000000    0.000000    0.000000
    0.000000    0.010190    0.010229    0.010318    0.010455    0.010574
    0.010708    0.010898    0.010934    0.011066    0.011228    0.011482
 Highest eigenvalues
    2.004991    2.023446    2.029279    2.075321    2.114992    2.125738


........................................................................
.............................. CYCLE   21 ..............................
........................................................................

 iter      E             dE          RMSdq      gap      omega  full diag
   1   -130.0667565 -0.130067E+03  0.363E-02    2.15       0.0  T
   2   -130.0667570 -0.508004E-06  0.209E-02    2.15       1.0  T
   3   -130.0667564  0.616547E-06  0.345E-03    2.15       3.2  T
   4   -130.0667571 -0.703689E-06  0.138E-03    2.15       8.0  T
   5   -130.0667571 -0.742605E-07  0.556E-04    2.15      19.8  T
   6   -130.0667572 -0.267177E-07  0.193E-04    2.15      56.8  T
     SCC iter.                  ...        0 min,  0.703 sec
     gradient                   ...        0 min,  0.117 sec
 * total energy  :  -128.2050701 Eh     change       -0.4029628E-04 Eh
   gradient norm :     0.0019250 Eh/α   predicted     0.0000000E+00 (-100.00%)
   displ. norm   :     0.0444726 α      lambda       -0.1677510E-04
   maximum displ.:     0.0187821 α      in ANC's #5, #31, #32, ...

........................................................................
.............................. CYCLE   22 ..............................
........................................................................

 iter      E             dE          RMSdq      gap      omega  full diag
   1   -130.0674471 -0.130067E+03  0.850E-03    2.16       0.0  T
   2   -130.0674472 -0.989928E-07  0.478E-03    2.16       2.3  T
   3   -130.0674471  0.202026E-07  0.113E-03    2.15       9.7  T
   4   -130.0674472 -0.296239E-07  0.547E-04    2.15      20.1  T
   5   -130.0674472 -0.863071E-08  0.203E-04    2.15      54.1  T
     SCC iter.                  ...        0 min,  0.521 sec
     gradient                   ...        0 min,  0.117 sec
 * total energy  :  -128.2050919 Eh     change       -0.2182986E-04 Eh
   gradient norm :     0.0007684 Eh/α   predicted    -0.8880918E-05 ( -59.32%)
   displ. norm   :     0.1464762 α      lambda       -0.3851544E-04
   maximum displ.:     0.0657293 α      in ANC's #5, #31, #32, ...

........................................................................
.............................. CYCLE   23 ..............................
........................................................................

 iter      E             dE          RMSdq      gap      omega  full diag
   1   -130.0677320 -0.130068E+03  0.205E-02    2.16       0.0  T
   2   -130.0677325 -0.407677E-06  0.121E-02    2.16       1.0  T
   3   -130.0677323  0.187739E-06  0.261E-03    2.15       4.2  T
   4   -130.0677325 -0.265565E-06  0.106E-03    2.15      10.4  T
   5   -130.0677325 -0.166579E-07  0.553E-04    2.16      19.8  T
   6   -130.0677326 -0.116648E-07  0.290E-04    2.16      37.8  T
     SCC iter.                  ...        0 min,  0.803 sec
     gradient                   ...        0 min,  0.115 sec
 * total energy  :  -128.2051276 Eh     change       -0.3567457E-04 Eh
   gradient norm :     0.0019623 Eh/α   predicted    -0.1944316E-04 ( -45.50%)
   displ. norm   :     0.1105161 α      lambda       -0.1844256E-04
   maximum displ.:     0.0540889 α      in ANC's #5, #31, #32, ...

........................................................................
.............................. CYCLE   24 ..............................
........................................................................

 iter      E             dE          RMSdq      gap      omega  full diag
   1   -130.0676320 -0.130068E+03  0.228E-02    2.15       0.0  T
   2   -130.0676328 -0.806663E-06  0.115E-02    2.15       1.0  T
   3   -130.0676327  0.968151E-07  0.345E-03    2.16       3.2  T
   4   -130.0676328 -0.933166E-07  0.194E-03    2.15       5.6  T
   5   -130.0676329 -0.110727E-06  0.788E-04    2.15      13.9  T
   6   -130.0676330 -0.281312E-07  0.352E-04    2.15      31.1  T
     SCC iter.                  ...        0 min,  0.746 sec
     gradient                   ...        0 min,  0.115 sec
 * total energy  :  -128.2051390 Eh     change       -0.1141647E-04 Eh
   gradient norm :     0.0022351 Eh/α   predicted    -0.9273520E-05 ( -18.77%)
   displ. norm   :     0.0795849 α      lambda       -0.2307352E-04
   maximum displ.:     0.0394240 α      in ANC's #5, #2, #31, ...

........................................................................
.............................. CYCLE   25 ..............................
........................................................................

 iter      E             dE          RMSdq      gap      omega  full diag
   1   -130.0676980 -0.130068E+03  0.108E-02    2.15       0.0  T
   2   -130.0676982 -0.235572E-06  0.584E-03    2.15       1.9  T
   3   -130.0676982  0.345291E-07  0.179E-03    2.15       6.1  T
   4   -130.0676982 -0.131488E-07  0.946E-04    2.15      11.6  T
   5   -130.0676982 -0.486033E-07  0.358E-04    2.15      30.6  T
     SCC iter.                  ...        0 min,  0.511 sec
     gradient                   ...        0 min,  0.118 sec
 * total energy  :  -128.2051562 Eh     change       -0.1716052E-04 Eh
   gradient norm :     0.0016397 Eh/α   predicted    -0.1161433E-04 ( -32.32%)
   displ. norm   :     0.1756453 α      lambda       -0.2729311E-04
   maximum displ.:     0.0879571 α      in ANC's #5, #2, #1, ...

........................................................................
.............................. CYCLE   26 ..............................
........................................................................

 iter      E             dE          RMSdq      gap      omega  full diag
   1   -130.0675400 -0.130068E+03  0.291E-02    2.16       0.0  T
   2   -130.0675412 -0.121253E-05  0.147E-02    2.16       1.0  T
   3   -130.0675409  0.234210E-06  0.461E-03    2.16       2.4  T
   4   -130.0675413 -0.374368E-06  0.213E-03    2.16       5.2  T
   5   -130.0675414 -0.513430E-07  0.984E-04    2.16      11.2  T
   6   -130.0675414 -0.674054E-07  0.300E-04    2.16      36.6  T
     SCC iter.                  ...        0 min,  0.807 sec
     gradient                   ...        0 min,  0.116 sec
 * total energy  :  -128.2051741 Eh     change       -0.1794749E-04 Eh
   gradient norm :     0.0012230 Eh/α   predicted    -0.1383413E-04 ( -22.92%)
   displ. norm   :     0.0956865 α      lambda       -0.1645528E-04
   maximum displ.:     0.0452983 α      in ANC's #5, #1, #2, ...

........................................................................
.............................. CYCLE   27 ..............................
........................................................................

 iter      E             dE          RMSdq      gap      omega  full diag
   1   -130.0675221 -0.130068E+03  0.200E-02    2.15       0.0  T
   2   -130.0675228 -0.743251E-06  0.959E-03    2.15       1.1  T
   3   -130.0675227  0.142347E-06  0.350E-03    2.15       3.1  T
   4   -130.0675229 -0.252528E-06  0.152E-03    2.15       7.2  T
   5   -130.0675230 -0.407328E-07  0.642E-04    2.15      17.1  T
   6   -130.0675230 -0.183620E-07  0.222E-04    2.15      49.4  T
     SCC iter.                  ...        0 min,  0.735 sec
     gradient                   ...        0 min,  0.124 sec
 * total energy  :  -128.2051855 Eh     change       -0.1141552E-04 Eh
   gradient norm :     0.0015341 Eh/α   predicted    -0.8262045E-05 ( -27.62%)
   displ. norm   :     0.0734509 α      lambda       -0.1267440E-04
   maximum displ.:     0.0432239 α      in ANC's #2, #5, #1, ...

........................................................................
.............................. CYCLE   28 ..............................
........................................................................

 iter      E             dE          RMSdq      gap      omega  full diag
   1   -130.0674363 -0.130067E+03  0.133E-02    2.15       0.0  T
   2   -130.0674365 -0.288879E-06  0.644E-03    2.15       1.7  T
   3   -130.0674366 -0.164253E-07  0.179E-03    2.15       6.1  T
   4   -130.0674366  0.134821E-07  0.881E-04    2.15      12.5  T
   5   -130.0674366 -0.305614E-07  0.402E-04    2.15      27.3  T
     SCC iter.                  ...        0 min,  0.596 sec
     gradient                   ...        0 min,  0.115 sec
 * total energy  :  -128.2051993 Eh     change       -0.1376652E-04 Eh
   gradient norm :     0.0010343 Eh/α   predicted    -0.6352839E-05 ( -53.85%)
   displ. norm   :     0.1365656 α      lambda       -0.1234849E-04
   maximum displ.:     0.0810437 α      in ANC's #2, #5, #1, ...

........................................................................
.............................. CYCLE   29 ..............................
........................................................................

 iter      E             dE          RMSdq      gap      omega  full diag
   1   -130.0674927 -0.130067E+03  0.165E-02    2.16       0.0  T
   2   -130.0674930 -0.254929E-06  0.879E-03    2.16       1.2  T
   3   -130.0674929  0.770074E-07  0.216E-03    2.16       5.1  T
   4   -130.0674930 -0.560685E-07  0.120E-03    2.16       9.1  T
   5   -130.0674931 -0.736201E-07  0.349E-04    2.16      31.5  T
   6   -130.0674931 -0.380612E-08  0.201E-04    2.16      54.5  T
     SCC iter.                  ...        0 min,  0.609 sec
     gradient                   ...        0 min,  0.113 sec
 * total energy  :  -128.2052132 Eh     change       -0.1387303E-04 Eh
   gradient norm :     0.0008547 Eh/α   predicted    -0.6226264E-05 ( -55.12%)
   displ. norm   :     0.1670900 α      lambda       -0.1211216E-04
   maximum displ.:     0.0977281 α      in ANC's #2, #5, #1, ...

........................................................................
.............................. CYCLE   30 ..............................
........................................................................

 iter      E             dE          RMSdq      gap      omega  full diag
   1   -130.0677963 -0.130068E+03  0.174E-02    2.16       0.0  T
   2   -130.0677966 -0.283150E-06  0.949E-03    2.16       1.2  T
   3   -130.0677963  0.294752E-06  0.273E-03    2.16       4.0  T
   4   -130.0677966 -0.311685E-06  0.125E-03    2.16       8.8  T
   5   -130.0677966 -0.563048E-07  0.491E-04    2.16      22.3  T
   6   -130.0677967 -0.189912E-07  0.143E-04    2.16      76.9  T
     SCC iter.                  ...        0 min,  0.722 sec
     gradient                   ...        0 min,  0.119 sec
 * total energy  :  -128.2052267 Eh     change       -0.1353638E-04 Eh
   gradient norm :     0.0010080 Eh/α   predicted    -0.6133087E-05 ( -54.69%)
   displ. norm   :     0.2599641 α      lambda       -0.1454226E-04
   maximum displ.:     0.1486238 α      in ANC's #2, #5, #1, ...

........................................................................
.............................. CYCLE   31 ..............................
........................................................................

 iter      E             dE          RMSdq      gap      omega  full diag
   1   -130.0675065 -0.130068E+03  0.240E-02    2.16       0.0  T
   2   -130.0675070 -0.490927E-06  0.136E-02    2.16       1.0  T
   3   -130.0675064  0.601612E-06  0.373E-03    2.16       2.9  T
   4   -130.0675071 -0.674716E-06  0.144E-03    2.16       7.6  T
   5   -130.0675072 -0.623293E-07  0.641E-04    2.16      17.1  T
   6   -130.0675072 -0.273889E-07  0.240E-04    2.16      45.7  T
     SCC iter.                  ...        0 min,  0.718 sec
     gradient                   ...        0 min,  0.115 sec
 * total energy  :  -128.2052415 Eh     change       -0.1485115E-04 Eh
   gradient norm :     0.0011969 Eh/α   predicted    -0.7489752E-05 ( -49.57%)
   displ. norm   :     0.2329247 α      lambda       -0.1339377E-04
   maximum displ.:     0.1307288 α      in ANC's #2, #1, #5, ...

........................................................................
.............................. CYCLE   32 ..............................
........................................................................

 iter      E             dE          RMSdq      gap      omega  full diag
   1   -130.0680900 -0.130068E+03  0.204E-02    2.17       0.0  T
   2   -130.0680904 -0.394904E-06  0.114E-02    2.17       1.0  T
   3   -130.0680900  0.409839E-06  0.314E-03    2.17       3.5  T
   4   -130.0680904 -0.435712E-06  0.141E-03    2.17       7.8  T
   5   -130.0680905 -0.745700E-07  0.556E-04    2.17      19.8  T
   6   -130.0680905 -0.211220E-07  0.210E-04    2.17      52.3  T
     SCC iter.                  ...        0 min,  0.602 sec
     gradient                   ...        0 min,  0.115 sec
 * total energy  :  -128.2052557 Eh     change       -0.1416861E-04 Eh
   gradient norm :     0.0010837 Eh/α   predicted    -0.6859383E-05 ( -51.59%)
   displ. norm   :     0.2844064 α      lambda       -0.1544372E-04
   maximum displ.:     0.1493680 α      in ANC's #2, #1, #5, ...

........................................................................
.............................. CYCLE   33 ..............................
........................................................................

 iter      E             dE          RMSdq      gap      omega  full diag
   1   -130.0677506 -0.130068E+03  0.248E-02    2.17       0.0  T
   2   -130.0677511 -0.524717E-06  0.137E-02    2.17       1.0  T
   3   -130.0677508  0.334063E-06  0.331E-03    2.17       3.3  T
   4   -130.0677511 -0.321159E-06  0.173E-03    2.17       6.3  T
   5   -130.0677512 -0.133149E-06  0.542E-04    2.17      20.2  T
   6   -130.0677513 -0.179976E-07  0.246E-04    2.17      44.5  T
     SCC iter.                  ...        0 min,  0.667 sec
     gradient                   ...        0 min,  0.122 sec
 * total energy  :  -128.2052721 Eh     change       -0.1639207E-04 Eh
   gradient norm :     0.0010938 Eh/α   predicted    -0.8003491E-05 ( -51.17%)
   displ. norm   :     0.2464477 α      lambda       -0.1421178E-04
   maximum displ.:     0.1302344 α      in ANC's #1, #2, #5, ...

........................................................................
.............................. CYCLE   34 ..............................
........................................................................

 iter      E             dE          RMSdq      gap      omega  full diag
   1   -130.0679525 -0.130068E+03  0.209E-02    2.17       0.0  T
   2   -130.0679528 -0.351538E-06  0.117E-02    2.17       1.0  T
   3   -130.0679526  0.245227E-06  0.293E-03    2.17       3.7  T
   4   -130.0679528 -0.258098E-06  0.144E-03    2.17       7.6  T
   5   -130.0679529 -0.730717E-07  0.552E-04    2.17      19.9  T
   6   -130.0679529 -0.173972E-07  0.268E-04    2.17      41.0  T
     SCC iter.                  ...        0 min,  0.565 sec
     gradient                   ...        0 min,  0.116 sec
 * total energy  :  -128.2052861 Eh     change       -0.1398023E-04 Eh
   gradient norm :     0.0011987 Eh/α   predicted    -0.7298869E-05 ( -47.79%)
   displ. norm   :     0.1516812 α      lambda       -0.8712498E-05
   maximum displ.:     0.0801476 α      in ANC's #1, #2, #5, ...

........................................................................
.............................. CYCLE   35 ..............................
........................................................................

 iter      E             dE          RMSdq      gap      omega  full diag
   1   -130.0676496 -0.130068E+03  0.137E-02    2.17       0.0  T
   2   -130.0676498 -0.176247E-06  0.742E-03    2.17       1.5  T
   3   -130.0676497  0.116466E-06  0.215E-03    2.17       5.1  T
   4   -130.0676498 -0.136942E-06  0.923E-04    2.17      11.9  T
   5   -130.0676498 -0.188994E-07  0.423E-04    2.17      26.0  T
     SCC iter.                  ...        0 min,  0.594 sec
     gradient                   ...        0 min,  0.119 sec
 * total energy  :  -128.2052953 Eh     change       -0.9201808E-05 Eh
   gradient norm :     0.0008255 Eh/α   predicted    -0.4401982E-05 ( -52.16%)
   displ. norm   :     0.1203966 α      lambda       -0.7961168E-05
   maximum displ.:     0.0600722 α      in ANC's #1, #2, #8, ...

........................................................................
.............................. CYCLE   36 ..............................
........................................................................

 iter      E             dE          RMSdq      gap      omega  full diag
   1   -130.0675934 -0.130068E+03  0.121E-02    2.17       0.0  T
   2   -130.0675935 -0.111472E-06  0.673E-03    2.17       1.6  T
   3   -130.0675934  0.963461E-07  0.180E-03    2.17       6.1  T
   4   -130.0675935 -0.116059E-06  0.720E-04    2.17      15.2  T
   5   -130.0675935 -0.155989E-07  0.233E-04    2.17      47.2  T
     SCC iter.                  ...        0 min,  0.431 sec
     gradient                   ...        0 min,  0.114 sec
 * total energy  :  -128.2053034 Eh     change       -0.8063008E-05 Eh
   gradient norm :     0.0005431 Eh/α   predicted    -0.4007023E-05 ( -50.30%)
   displ. norm   :     0.0905034 α      lambda       -0.5279601E-05
   maximum displ.:     0.0454910 α      in ANC's #1, #2, #8, ...

........................................................................
.............................. CYCLE   37 ..............................
........................................................................

 iter      E             dE          RMSdq      gap      omega  full diag
   1   -130.0674480 -0.130067E+03  0.987E-03    2.17       0.0  T
   2   -130.0674481 -0.795430E-07  0.546E-03    2.18       2.0  T
   3   -130.0674481  0.505300E-07  0.128E-03    2.18       8.6  T
   4   -130.0674481 -0.567292E-07  0.587E-04    2.18      18.7  T
   5   -130.0674482 -0.168211E-07  0.142E-04    2.18      77.1  T
     SCC iter.                  ...        0 min,  0.583 sec
     gradient                   ...        0 min,  0.117 sec
 * total energy  :  -128.2053088 Eh     change       -0.5414017E-05 Eh
   gradient norm :     0.0006641 Eh/α   predicted    -0.2653860E-05 ( -50.98%)
   displ. norm   :     0.0710255 α      lambda       -0.3942481E-05
   maximum displ.:     0.0370750 α      in ANC's #1, #2, #8, ...

........................................................................
.............................. CYCLE   38 ..............................
........................................................................

 iter      E             dE          RMSdq      gap      omega  full diag
   1   -130.0675377 -0.130068E+03  0.806E-03    2.18       0.0  T
   2   -130.0675378 -0.505926E-07  0.460E-03    2.18       2.4  T
   3   -130.0675377  0.523407E-07  0.110E-03    2.18       9.9  T
   4   -130.0675378 -0.616451E-07  0.397E-04    2.18      27.6  T
   5   -130.0675378 -0.595202E-08  0.145E-04    2.18      75.7  T
     SCC iter.                  ...        0 min,  0.568 sec
     gradient                   ...        0 min,  0.115 sec
 * total energy  :  -128.2053129 Eh     change       -0.4152168E-05 Eh
   gradient norm :     0.0006492 Eh/α   predicted    -0.1977907E-05 ( -52.36%)
   displ. norm   :     0.0565179 α      lambda       -0.2998009E-05
   maximum displ.:     0.0307869 α      in ANC's #2, #1, #33, ...

........................................................................
.............................. CYCLE   39 ..............................
........................................................................

 iter      E             dE          RMSdq      gap      omega  full diag
   1   -130.0677029 -0.130068E+03  0.627E-03    2.18       0.0  T
   2   -130.0677029 -0.339563E-07  0.365E-03    2.18       3.0  T
   3   -130.0677029  0.482579E-07  0.102E-03    2.18      10.7  T
   4   -130.0677029 -0.579848E-07  0.270E-04    2.18      40.7  T
   5   -130.0677029 -0.154495E-08  0.149E-04    2.18      73.5  T
     SCC iter.                  ...        0 min,  0.530 sec
     gradient                   ...        0 min,  0.115 sec
 * total energy  :  -128.2053163 Eh     change       -0.3376515E-05 Eh
   gradient norm :     0.0004531 Eh/α   predicted    -0.1503183E-05 ( -55.48%)
   displ. norm   :     0.0600064 α      lambda       -0.2784159E-05
   maximum displ.:     0.0336353 α      in ANC's #1, #2, #33, ...

........................................................................
.............................. CYCLE   40 ..............................
........................................................................

 iter      E             dE          RMSdq      gap      omega  full diag
   1   -130.0678281 -0.130068E+03  0.645E-03    2.18       0.0  T
   2   -130.0678282 -0.310732E-07  0.374E-03    2.18       2.9  T
   3   -130.0678281  0.309354E-07  0.933E-04    2.18      11.8  T
   4   -130.0678282 -0.388988E-07  0.301E-04    2.18      36.5  T
     SCC iter.                  ...        0 min,  0.370 sec
     gradient                   ...        0 min,  0.115 sec
 * total energy  :  -128.2053195 Eh     change       -0.3210857E-05 Eh
   gradient norm :     0.0003365 Eh/α   predicted    -0.1398414E-05 ( -56.45%)
   displ. norm   :     0.0676114 α      lambda       -0.2640574E-05
   maximum displ.:     0.0405507 α      in ANC's #1, #2, #5, ...

........................................................................
.............................. CYCLE   41 ..............................
........................................................................

 iter      E             dE          RMSdq      gap      omega  full diag
   1   -130.0678661 -0.130068E+03  0.742E-03    2.18       0.0  T
   2   -130.0678662 -0.283098E-07  0.427E-03    2.18       2.6  T
   3   -130.0678661  0.271727E-07  0.837E-04    2.18      13.1  T
   4   -130.0678662 -0.318510E-07  0.371E-04    2.18      29.5  T
     SCC iter.                  ...        0 min,  0.462 sec
     gradient                   ...        0 min,  0.115 sec
 * total energy  :  -128.2053225 Eh     change       -0.2992326E-05 Eh
   gradient norm :     0.0004443 Eh/α   predicted    -0.1325918E-05 ( -55.69%)
   displ. norm   :     0.0718186 α      lambda       -0.2265851E-05
   maximum displ.:     0.0460861 α      in ANC's #1, #2, #10, ...

........................................................................
.............................. CYCLE   42 ..............................
........................................................................

 iter      E             dE          RMSdq      gap      omega  full diag
   1   -130.0678540 -0.130068E+03  0.759E-03    2.18       0.0  T
   2   -130.0678541 -0.280382E-07  0.434E-03    2.18       2.5  T
   3   -130.0678541  0.201090E-07  0.842E-04    2.18      13.0  T
   4   -130.0678541 -0.233225E-07  0.434E-04    2.18      25.3  T
     SCC iter.                  ...        0 min,  0.413 sec
     gradient                   ...        0 min,  0.114 sec
 * total energy  :  -128.2053251 Eh     change       -0.2602616E-05 Eh
   gradient norm :     0.0004499 Eh/α   predicted    -0.1139619E-05 ( -56.21%)
   displ. norm   :     0.0854134 α      lambda       -0.2227237E-05
   maximum displ.:     0.0568160 α      in ANC's #1, #2, #10, ...
 * RMSD in coord.:     0.2381986 α      energy gain  -0.2953220E-03 Eh

generating ANC from exact Hessian ...
Using Lindh-Hessian (1995)
 Shifting diagonal of input Hessian by    1.0100197606159400E-002
 Lowest  eigenvalues of input Hessian
    0.010000    0.000000    0.000000    0.000000    0.000000    0.000000
    0.000000    0.010203    0.010223    0.010307    0.010421    0.010583
    0.010725    0.010857    0.010941    0.010992    0.011220    0.011441
 Highest eigenvalues
    2.010449    2.024130    2.031100    2.076539    2.115335    2.127151


........................................................................
.............................. CYCLE   43 ..............................
........................................................................

 iter      E             dE          RMSdq      gap      omega  full diag
   1   -130.0677560 -0.130068E+03  0.840E-03    2.18       0.0  T
   2   -130.0677561 -0.364454E-07  0.477E-03    2.18       2.3  T
   3   -130.0677561  0.238718E-07  0.958E-04    2.18      11.5  T
   4   -130.0677561 -0.292232E-07  0.464E-04    2.18      23.6  T
     SCC iter.                  ...        0 min,  0.404 sec
     gradient                   ...        0 min,  0.112 sec
 * total energy  :  -128.2053277 Eh     change       -0.2641107E-05 Eh
   gradient norm :     0.0003325 Eh/α   predicted     0.0000000E+00 (-100.00%)
   displ. norm   :     0.0107518 α      lambda       -0.8082511E-06
   maximum displ.:     0.0054312 α      in ANC's #5, #34, #1, ...

........................................................................
.............................. CYCLE   44 ..............................
........................................................................

 iter      E             dE          RMSdq      gap      omega  full diag
   1   -130.0677592 -0.130068E+03  0.231E-03    2.18       0.0  T
   2   -130.0677592 -0.931834E-08  0.119E-03    2.18       9.2  T
   3   -130.0677592  0.129921E-08  0.357E-04    2.18      30.8  T
   4   -130.0677592 -0.162555E-08  0.189E-04    2.18      58.1  T
     SCC iter.                  ...        0 min,  0.540 sec
     gradient                   ...        0 min,  0.117 sec
 * total energy  :  -128.2053288 Eh     change       -0.1039416E-05 Eh
   gradient norm :     0.0001991 Eh/α   predicted    -0.4170740E-06 ( -59.87%)
   displ. norm   :     0.0478061 α      lambda       -0.2957498E-05
   maximum displ.:     0.0237605 α      in ANC's #5, #34, #1, ...

........................................................................
.............................. CYCLE   45 ..............................
........................................................................

 iter      E             dE          RMSdq      gap      omega  full diag
   1   -130.0677657 -0.130068E+03  0.818E-03    2.18       0.0  T
   2   -130.0677658 -0.878164E-07  0.436E-03    2.18       2.5  T
   3   -130.0677657  0.454998E-07  0.137E-03    2.18       8.0  T
   4   -130.0677658 -0.526962E-07  0.655E-04    2.18      16.8  T
   5   -130.0677658 -0.162732E-07  0.155E-04    2.18      70.8  T
     SCC iter.                  ...        0 min,  0.612 sec
     gradient                   ...        0 min,  0.115 sec
 * total energy  :  -128.2053303 Eh     change       -0.1527276E-05 Eh
   gradient norm :     0.0006243 Eh/α   predicted    -0.1483879E-05 (  -2.84%)
   displ. norm   :     0.0204134 α      lambda       -0.1789706E-05
   maximum displ.:     0.0107858 α      in ANC's #5, #1, #34, ...

........................................................................
.............................. CYCLE   46 ..............................
........................................................................

 iter      E             dE          RMSdq      gap      omega  full diag
   1   -130.0678248 -0.130068E+03  0.642E-03    2.18       0.0  T
   2   -130.0678249 -0.919418E-07  0.309E-03    2.18       3.6  T
   3   -130.0678249  0.148239E-08  0.952E-04    2.18      11.5  T
   4   -130.0678249 -0.296600E-08  0.546E-04    2.18      20.1  T
     SCC iter.                  ...        0 min,  0.395 sec
     gradient                   ...        0 min,  0.113 sec
 * total energy  :  -128.2053313 Eh     change       -0.9585052E-06 Eh
   gradient norm :     0.0004486 Eh/α   predicted    -0.8970894E-06 (  -6.41%)
   displ. norm   :     0.0110747 α      lambda       -0.1012472E-05
   maximum displ.:     0.0049752 α      in ANC's #9, #5, #19, ...

........................................................................
.............................. CYCLE   47 ..............................
........................................................................

 iter      E             dE          RMSdq      gap      omega  full diag
   1   -130.0678126 -0.130068E+03  0.410E-03    2.18       0.0  T
   2   -130.0678127 -0.445367E-07  0.186E-03    2.18       5.9  T
   3   -130.0678127  0.759405E-08  0.762E-04    2.18      14.4  T
   4   -130.0678127 -0.144523E-07  0.328E-04    2.18      33.5  T
     SCC iter.                  ...        0 min,  0.372 sec
     gradient                   ...        0 min,  0.115 sec
 * total energy  :  -128.2053320 Eh     change       -0.7223740E-06 Eh
   gradient norm :     0.0002729 Eh/α   predicted    -0.5071961E-06 ( -29.79%)
   displ. norm   :     0.0152683 α      lambda       -0.9924029E-06
   maximum displ.:     0.0074258 α      in ANC's #5, #1, #9, ...

........................................................................
.............................. CYCLE   48 ..............................
........................................................................

 iter      E             dE          RMSdq      gap      omega  full diag
   1   -130.0678057 -0.130068E+03  0.464E-03    2.18       0.0  T
   2   -130.0678057 -0.392733E-07  0.216E-03    2.18       5.1  T
   3   -130.0678057  0.184741E-10  0.647E-04    2.18      17.0  T
   4   -130.0678057 -0.506239E-08  0.338E-04    2.18      32.5  T
     SCC iter.                  ...        0 min,  0.498 sec
     gradient                   ...        0 min,  0.119 sec
 * total energy  :  -128.2053329 Eh     change       -0.8757754E-06 Eh
   gradient norm :     0.0002219 Eh/α   predicted    -0.4988811E-06 ( -43.04%)
   displ. norm   :     0.0261089 α      lambda       -0.7551138E-06
   maximum displ.:     0.0158393 α      in ANC's #5, #1, #34, ...

........................................................................
.............................. CYCLE   49 ..............................
........................................................................

 iter      E             dE          RMSdq      gap      omega  full diag
   1   -130.0677728 -0.130068E+03  0.357E-03    2.18       0.0  T
   2   -130.0677728 -0.754338E-08  0.206E-03    2.18       5.3  T
   3   -130.0677728  0.185256E-07  0.588E-04    2.18      18.7  T
   4   -130.0677728 -0.210188E-07  0.204E-04    2.18      53.9  T
     SCC iter.                  ...        0 min,  0.477 sec
     gradient                   ...        0 min,  0.117 sec
 * total energy  :  -128.2053338 Eh     change       -0.8875858E-06 Eh
   gradient norm :     0.0001767 Eh/α   predicted    -0.3798912E-06 ( -57.20%)
   displ. norm   :     0.0341655 α      lambda       -0.7183075E-06
   maximum displ.:     0.0208194 α      in ANC's #5, #1, #34, ...

........................................................................
.............................. CYCLE   50 ..............................
........................................................................

 iter      E             dE          RMSdq      gap      omega  full diag
   1   -130.0677566 -0.130068E+03  0.444E-03    2.18       0.0  T
   2   -130.0677567 -0.645466E-08  0.258E-03    2.18       4.2  T
   3   -130.0677566  0.119971E-07  0.473E-04    2.18      23.2  T
   4   -130.0677567 -0.136724E-07  0.199E-04    2.18      55.1  T
     SCC iter.                  ...        0 min,  0.471 sec
     gradient                   ...        0 min,  0.112 sec
 * total energy  :  -128.2053346 Eh     change       -0.8904910E-06 Eh
   gradient norm :     0.0001502 Eh/α   predicted    -0.3619948E-06 ( -59.35%)
   displ. norm   :     0.0327551 α      lambda       -0.6006366E-06
   maximum displ.:     0.0202938 α      in ANC's #5, #1, #4, ...

........................................................................
.............................. CYCLE   51 ..............................
........................................................................

 iter      E             dE          RMSdq      gap      omega  full diag
   1   -130.0677658 -0.130068E+03  0.426E-03    2.18       0.0  T
   2   -130.0677658 -0.514385E-08  0.249E-03    2.18       4.4  T
   3   -130.0677658  0.675189E-08  0.377E-04    2.18      29.1  T
   4   -130.0677658 -0.735221E-08  0.183E-04    2.18      59.9  T
     SCC iter.                  ...        0 min,  0.480 sec
     gradient                   ...        0 min,  0.119 sec
 * total energy  :  -128.2053354 Eh     change       -0.7832129E-06 Eh
   gradient norm :     0.0001222 Eh/α   predicted    -0.3053174E-06 ( -61.02%)
   displ. norm   :     0.0402300 α      lambda       -0.7371149E-06
   maximum displ.:     0.0245070 α      in ANC's #5, #1, #4, ...

........................................................................
.............................. CYCLE   52 ..............................
........................................................................

 iter      E             dE          RMSdq      gap      omega  full diag
   1   -130.0677645 -0.130068E+03  0.535E-03    2.18       0.0  T
   2   -130.0677645 -0.814774E-08  0.310E-03    2.18       3.5  T
   3   -130.0677645  0.422918E-08  0.411E-04    2.18      26.7  T
   4   -130.0677645 -0.631084E-08  0.195E-04    2.18      56.3  T
     SCC iter.                  ...        0 min,  0.367 sec
     gradient                   ...        0 min,  0.112 sec
 * total energy  :  -128.2053364 Eh     change       -0.9851769E-06 Eh
   gradient norm :     0.0001226 Eh/α   predicted    -0.3702745E-06 ( -62.42%)
   displ. norm   :     0.0667649 α      lambda       -0.1186756E-05
   maximum displ.:     0.0398581 α      in ANC's #1, #5, #4, ...

........................................................................
.............................. CYCLE   53 ..............................
........................................................................

 iter      E             dE          RMSdq      gap      omega  full diag
   1   -130.0677695 -0.130068E+03  0.908E-03    2.17       0.0  T
   2   -130.0677695 -0.230827E-07  0.526E-03    2.17       2.1  T
   3   -130.0677695  0.139773E-07  0.703E-04    2.17      15.6  T
   4   -130.0677695 -0.198855E-07  0.324E-04    2.17      33.9  T
     SCC iter.                  ...        0 min,  0.492 sec
     gradient                   ...        0 min,  0.117 sec
 * total energy  :  -128.2053379 Eh     change       -0.1513195E-05 Eh
   gradient norm :     0.0001631 Eh/α   predicted    -0.5980318E-06 ( -60.48%)
   displ. norm   :     0.1132393 α      lambda       -0.1628449E-05
   maximum displ.:     0.0679816 α      in ANC's #1, #5, #4, ...

........................................................................
.............................. CYCLE   54 ..............................
........................................................................

 iter      E             dE          RMSdq      gap      omega  full diag
   1   -130.0677464 -0.130068E+03  0.154E-02    2.17       0.0  T
   2   -130.0677464 -0.648468E-07  0.893E-03    2.17       1.2  T
   3   -130.0677463  0.146116E-06  0.156E-03    2.17       7.0  T
   4   -130.0677465 -0.158870E-06  0.672E-04    2.17      16.3  T
   5   -130.0677465 -0.184297E-07  0.300E-04    2.17      36.6  T
     SCC iter.                  ...        0 min,  0.623 sec
     gradient                   ...        0 min,  0.115 sec
 * total energy  :  -128.2053397 Eh     change       -0.1795317E-05 Eh
   gradient norm :     0.0001909 Eh/α   predicted    -0.8199667E-06 ( -54.33%)
   displ. norm   :     0.0742598 α      lambda       -0.7618493E-06
   maximum displ.:     0.0451933 α      in ANC's #1, #5, #4, ...

........................................................................
.............................. CYCLE   55 ..............................
........................................................................

 iter      E             dE          RMSdq      gap      omega  full diag
   1   -130.0677830 -0.130068E+03  0.101E-02    2.17       0.0  T
   2   -130.0677831 -0.290171E-07  0.582E-03    2.17       1.9  T
   3   -130.0677830  0.523681E-07  0.974E-04    2.17      11.3  T
   4   -130.0677831 -0.578308E-07  0.436E-04    2.17      25.2  T
     SCC iter.                  ...        0 min,  0.492 sec
     gradient                   ...        0 min,  0.121 sec
 * total energy  :  -128.2053406 Eh     change       -0.8862160E-06 Eh
   gradient norm :     0.0001472 Eh/α   predicted    -0.3838384E-06 ( -56.69%)
   displ. norm   :     0.0435952 α      lambda       -0.5507067E-06
   maximum displ.:     0.0272188 α      in ANC's #1, #5, #4, ...

........................................................................
.............................. CYCLE   56 ..............................
........................................................................

 iter      E             dE          RMSdq      gap      omega  full diag
   1   -130.0678412 -0.130068E+03  0.585E-03    2.17       0.0  T
   2   -130.0678412 -0.748861E-08  0.340E-03    2.17       3.2  T
   3   -130.0678411  0.102690E-06  0.109E-03    2.17      10.1  T
   4   -130.0678412 -0.112780E-06  0.227E-04    2.17      48.3  T
   5   -130.0678412 -0.103660E-08  0.708E-05    2.17     155.0  T
     SCC iter.                  ...        0 min,  0.457 sec
     gradient                   ...        0 min,  0.112 sec
 * total energy  :  -128.2053413 Eh     change       -0.7343135E-06 Eh
   gradient norm :     0.0000953 Eh/α   predicted    -0.2768071E-06 ( -62.30%)
   displ. norm   :     0.0444120 α      lambda       -0.7646991E-06
   maximum displ.:     0.0272175 α      in ANC's #1, #4, #5, ...

........................................................................
.............................. CYCLE   57 ..............................
........................................................................

 iter      E             dE          RMSdq      gap      omega  full diag
   1   -130.0678657 -0.130068E+03  0.561E-03    2.17       0.0  T
   2   -130.0678657 -0.109730E-07  0.325E-03    2.17       3.4  T
   3   -130.0678657  0.371958E-07  0.726E-04    2.17      15.1  T
   4   -130.0678657 -0.405811E-07  0.267E-04    2.17      41.1  T
     SCC iter.                  ...        0 min,  0.432 sec
     gradient                   ...        0 min,  0.113 sec
 * total energy  :  -128.2053423 Eh     change       -0.9488181E-06 Eh
   gradient norm :     0.0001099 Eh/α   predicted    -0.3865620E-06 ( -59.26%)
   displ. norm   :     0.0418840 α      lambda       -0.6834702E-06
   maximum displ.:     0.0255650 α      in ANC's #1, #4, #34, ...

........................................................................
.............................. CYCLE   58 ..............................
........................................................................

 iter      E             dE          RMSdq      gap      omega  full diag
   1   -130.0678559 -0.130068E+03  0.499E-03    2.17       0.0  T
   2   -130.0678559 -0.715804E-08  0.290E-03    2.17       3.8  T
   3   -130.0678558  0.519476E-07  0.797E-04    2.17      13.8  T
   4   -130.0678559 -0.567192E-07  0.216E-04    2.17      50.8  T
     SCC iter.                  ...        0 min,  0.418 sec
     gradient                   ...        0 min,  0.117 sec
 * total energy  :  -128.2053431 Eh     change       -0.7706747E-06 Eh
   gradient norm :     0.0001547 Eh/α   predicted    -0.3442234E-06 ( -55.33%)
   displ. norm   :     0.0290300 α      lambda       -0.3723457E-06
   maximum displ.:     0.0185805 α      in ANC's #1, #4, #34, ...

........................................................................
.............................. CYCLE   59 ..............................
........................................................................

 iter      E             dE          RMSdq      gap      omega  full diag
   1   -130.0678342 -0.130068E+03  0.321E-03    2.17       0.0  T
   2   -130.0678342 -0.379018E-08  0.184E-03    2.17       6.0  T
   3   -130.0678342  0.994811E-08  0.408E-04    2.17      26.9  T
   4   -130.0678342 -0.100749E-07  0.194E-04    2.17      56.7  T
     SCC iter.                  ...        0 min,  0.332 sec
     gradient                   ...        0 min,  0.113 sec
 * total energy  :  -128.2053435 Eh     change       -0.4566108E-06 Eh
   gradient norm :     0.0001247 Eh/α   predicted    -0.1909354E-06 ( -58.18%)
   displ. norm   :     0.0215284 α      lambda       -0.3123671E-06
   maximum displ.:     0.0145049 α      in ANC's #1, #4, #34, ...

........................................................................
.............................. CYCLE   60 ..............................
........................................................................

 iter      E             dE          RMSdq      gap      omega  full diag
   1   -130.0678203 -0.130068E+03  0.225E-03    2.17       0.0  T
   2   -130.0678203 -0.180412E-08  0.130E-03    2.17       8.4  T
   3   -130.0678203  0.386612E-08  0.252E-04    2.17      43.6  T
   4   -130.0678203 -0.391671E-08  0.123E-04    2.17      89.3  T
     SCC iter.                  ...        0 min,  0.477 sec
     gradient                   ...        0 min,  0.118 sec
 * total energy  :  -128.2053439 Eh     change       -0.4154978E-06 Eh
   gradient norm :     0.0000715 Eh/α   predicted    -0.1584606E-06 ( -61.86%)
   displ. norm   :     0.0232684 α      lambda       -0.3738675E-06
   maximum displ.:     0.0155610 α      in ANC's #1, #4, #6, ...

........................................................................
.............................. CYCLE   61 ..............................
........................................................................

 iter      E             dE          RMSdq      gap      omega  full diag
   1   -130.0677977 -0.130068E+03  0.239E-03    2.17       0.0  T
   2   -130.0677977 -0.295992E-08  0.135E-03    2.17       8.1  T
   3   -130.0677977  0.863366E-09  0.230E-04    2.17      47.6  T
   4   -130.0677977 -0.305107E-09  0.151E-04    2.17      72.9  T
     SCC iter.                  ...        0 min,  0.411 sec
     gradient                   ...        0 min,  0.112 sec
[...]
     4   7 N        2.676    -0.147    24.185     7.304
     5   6 C        3.927     0.086    19.099     6.211
     6   6 C        3.760    -0.124    22.934     6.827
     7   6 C        3.760    -0.121    22.867     6.817
     8   6 C        3.776    -0.130    23.013     6.835
     9  15 P        4.517     0.326   146.564    21.747
    10  16 S        1.898    -0.067   143.815    20.184
    11  16 S        2.072    -0.034   142.443    20.087
    12   6 C        2.972     0.043    27.029     8.528
    13   6 C        2.948    -0.029    28.725     8.790
    14   6 C        2.922    -0.020    28.503     8.755
    15   6 C        2.977    -0.018    28.453     8.750
    16   6 C        3.336     0.488    17.268     6.581
    17   9 F        0.791    -0.195    11.179     3.950
    18   9 F        0.791    -0.195    11.188     3.951
    19   9 F        0.791    -0.208    11.321     3.975
    20   6 C        2.922    -0.019    28.474     8.751
    21   6 C        2.973    -0.029    28.712     8.789
    22   7 N        2.683    -0.133    23.890     7.259
    23   6 C        3.882    -0.032    21.096     6.530
    24   6 C        3.042     0.051    26.811     8.493
    25   6 C        2.916    -0.054    29.329     8.881
    26   6 C        2.918    -0.033    28.823     8.804
    27   6 C        2.986     0.012    27.728     8.638
    28   6 C        2.919    -0.030    28.756     8.794
    29   6 C        2.915    -0.022    28.548     8.762
    30   6 C        2.917    -0.022    28.553     8.762
    31   6 C        2.917    -0.032    28.802     8.801
    32   6 C        2.989     0.012    27.735     8.639
    33   6 C        2.977    -0.012    28.305     8.727
    34   6 C        2.978    -0.010    28.264     8.721
    35   6 C        3.168     0.051    26.501     8.412
    36   6 C        2.915    -0.050    29.232     8.866
    37   6 C        2.919    -0.031    28.780     8.797
    38   6 C        2.986     0.013    27.718     8.636
    39   6 C        2.919    -0.030    28.748     8.793
    40   6 C        2.915    -0.023    28.576     8.766
    41   6 C        2.916    -0.024    28.612     8.771
    42   6 C        2.917    -0.035    28.881     8.813
    43   6 C        2.989     0.011    27.760     8.643
    44   7 N        2.682    -0.123    23.674     7.226
    45   6 C        3.868    -0.042    21.283     6.560
    46   1 H        0.925     0.067     2.117     2.275
    47   1 H        0.925     0.058     2.221     2.331
    48   1 H        0.925     0.052     2.292     2.367
    49   1 H        0.925     0.074     2.039     2.233
    50   1 H        0.925     0.071     2.071     2.250
    51   1 H        0.925     0.058     2.222     2.331
    52   1 H        0.925     0.054     2.267     2.354
    53   1 H        0.925     0.049     2.336     2.390
    54   1 H        0.925     0.068     2.104     2.268
    55   1 H        0.925     0.057     2.229     2.335
    56   1 H        0.925     0.054     2.275     2.359
    57   1 H        0.925     0.065     2.137     2.286
    58   1 H        0.925     0.041     2.430     2.438
    59   1 H        0.925     0.059     2.216     2.328
    60   1 H        0.925     0.067     2.119     2.277
    61   1 H        0.925     0.057     2.234     2.338
    62   1 H        0.926     0.067     2.119     2.276
    63   1 H        0.926     0.080     1.974     2.197
    64   1 H        0.926     0.078     2.002     2.213
    65   1 H        0.926     0.065     2.144     2.290
    66   1 H        0.925     0.066     2.127     2.280
    67   1 H        0.924     0.055     2.262     2.352
    68   1 H        0.925     0.062     2.180     2.309
    69   1 H        0.926     0.041     2.441     2.443
    70   1 H        0.926     0.055     2.263     2.353
    71   1 H        0.926     0.049     2.330     2.387
    72   1 H        0.926     0.052     2.295     2.369
    73   1 H        0.926     0.049     2.334     2.389
    74   1 H        0.926     0.039     2.468     2.457
    75   1 H        0.926     0.045     2.379     2.412
    76   1 H        0.926     0.056     2.251     2.346
    77   1 H        0.926     0.050     2.320     2.382
    78   1 H        0.926     0.052     2.297     2.370
    79   1 H        0.926     0.047     2.354     2.399
    80   1 H        0.926     0.036     2.502     2.474
    81   1 H        0.925     0.071     2.071     2.250
    82   1 H        0.925     0.076     2.018     2.221
    83   1 H        0.924     0.057     2.238     2.339

 Mol. C6AA /au·bohr⁶  :      90689.047503
 Mol. C8AA /au·bohr⁸  :    2412696.428338
 Mol. α(0) /au        :        477.620485


Wiberg/Mayer (AO) data.
largest (>0.10) Wiberg bond orders for each atom

 ---------------------------------------------------------------------------
     #   Z sym  total        # sym  WBO       # sym  WBO       # sym  WBO
 ---------------------------------------------------------------------------
     1   6 C    3.990 --     2 C    1.005    48 H    0.979    46 H    0.979
                            47 H    0.966
     2   6 C    3.955 --     3 C    1.008     1 C    1.005    49 H    0.949
                             4 N    0.933
     3   6 C    3.989 --     2 C    1.008    52 H    0.981    50 H    0.978
                            51 H    0.961
     4   7 N    3.390 --     9 P    1.267     2 C    0.933     5 C    0.905
     5   6 C    3.949 --     8 C    1.000     7 C    0.997     6 C    0.993
                             4 N    0.905
     6   6 C    3.986 --     5 C    0.993    53 H    0.979    55 H    0.977
                            54 H    0.977
     7   6 C    3.990 --     5 C    0.997    56 H    0.980    57 H    0.978
                            58 H    0.977
     8   6 C    3.990 --     5 C    1.000    60 H    0.976    59 H    0.975
                            61 H    0.946
     9  15 P    5.063 --     4 N    1.267    44 N    1.198    22 N    1.189
                            10 S    0.941
    10  16 S    2.443 --    11 S    1.181     9 P    0.941
    11  16 S    2.417 --    10 S    1.181    12 C    0.996
    12   6 C    3.964 --    13 C    1.402    21 C    1.398    11 S    0.996
    13   6 C    3.988 --    14 C    1.444    12 C    1.402    62 H    0.963
                            20 C    0.109
    14   6 C    3.986 --    13 C    1.444    15 C    1.410    63 H    0.963
                            21 C    0.108
    15   6 C    3.973 --    20 C    1.412    14 C    1.410    16 C    0.948
    16   6 C    3.834 --    17 F    0.959    18 F    0.958    15 C    0.948
                            19 F    0.935
    17   9 F    1.085 --    16 C    0.959
    18   9 F    1.084 --    16 C    0.958
    19   9 F    1.067 --    16 C    0.935
    20   6 C    3.987 --    21 C    1.444    15 C    1.412    64 H    0.963
                            13 C    0.109
    21   6 C    3.988 --    20 C    1.444    12 C    1.398    65 H    0.961
                            14 C    0.108
    22   7 N    3.415 --     9 P    1.189    24 C    0.982    23 C    0.974
    23   6 C    3.963 --    66 H    0.977    22 N    0.974    67 H    0.969
                            68 H    0.961
    24   6 C    3.947 --    33 C    1.451    25 C    1.275    22 N    0.982
    25   6 C    3.985 --    26 C    1.557    24 C    1.275    69 H    0.964
    26   6 C    3.984 --    25 C    1.557    27 C    1.273    70 H    0.966
                            33 C    0.105
    27   6 C    3.988 --    28 C    1.281    26 C    1.273    32 C    1.254
    28   6 C    3.988 --    29 C    1.554    27 C    1.281    71 H    0.967
                            31 C    0.117
    29   6 C    3.985 --    28 C    1.554    30 C    1.323    72 H    0.969
    30   6 C    3.990 --    31 C    1.552    29 C    1.323    73 H    0.970
    31   6 C    3.989 --    30 C    1.552    32 C    1.285    74 H    0.965
                            28 C    0.117
    32   6 C    3.987 --    31 C    1.285    27 C    1.254    33 C    1.231
    33   6 C    3.985 --    24 C    1.451    32 C    1.231    34 C    1.031
                            26 C    0.105
    34   6 C    3.986 --    35 C    1.454    43 C    1.232    33 C    1.031
                            37 C    0.106
    35   6 C    3.950 --    34 C    1.454    36 C    1.284    44 N    0.973
    36   6 C    3.988 --    37 C    1.555    35 C    1.284    75 H    0.962
    37   6 C    3.984 --    36 C    1.555    38 C    1.273    76 H    0.966
                            34 C    0.106
    38   6 C    3.989 --    39 C    1.280    37 C    1.273    43 C    1.254
    39   6 C    3.988 --    40 C    1.555    38 C    1.280    77 H    0.967
                            42 C    0.117
    40   6 C    3.986 --    39 C    1.555    41 C    1.322    78 H    0.969
    41   6 C    3.990 --    42 C    1.551    40 C    1.322    79 H    0.970
    42   6 C    3.989 --    41 C    1.551    43 C    1.282    80 H    0.965
                            39 C    0.117
    43   6 C    3.987 --    42 C    1.282    38 C    1.254    34 C    1.232
    44   7 N    3.406 --     9 P    1.198    35 C    0.973    45 C    0.971
    45   6 C    3.959 --    82 H    0.977    83 H    0.973    44 N    0.971
                            81 H    0.963
    46   1 H    0.994 --     1 C    0.979
    47   1 H    0.996 --     1 C    0.966
    48   1 H    0.997 --     1 C    0.979
    49   1 H    0.993 --     2 C    0.949
    50   1 H    0.994 --     3 C    0.978
    51   1 H    0.996 --     3 C    0.961
    52   1 H    0.997 --     3 C    0.981
    53   1 H    0.997 --     6 C    0.979
    54   1 H    0.994 --     6 C    0.977
    55   1 H    0.997 --     6 C    0.977
    56   1 H    0.997 --     7 C    0.980
    57   1 H    0.995 --     7 C    0.978
    58   1 H    0.998 --     7 C    0.977
    59   1 H    0.997 --     8 C    0.975
    60   1 H    0.995 --     8 C    0.976
    61   1 H    0.997 --     8 C    0.946
    62   1 H    0.995 --    13 C    0.963
    63   1 H    0.993 --    14 C    0.963
    64   1 H    0.993 --    20 C    0.963
    65   1 H    0.995 --    21 C    0.961
    66   1 H    0.995 --    23 C    0.977
    67   1 H    0.997 --    23 C    0.969
    68   1 H    0.995 --    23 C    0.961
    69   1 H    0.997 --    25 C    0.964
    70   1 H    0.995 --    26 C    0.966
    71   1 H    0.997 --    28 C    0.967
    72   1 H    0.996 --    29 C    0.969
    73   1 H    0.997 --    30 C    0.970
    74   1 H    0.998 --    31 C    0.965
    75   1 H    0.997 --    36 C    0.962
    76   1 H    0.996 --    37 C    0.966
    77   1 H    0.997 --    39 C    0.967
    78   1 H    0.996 --    40 C    0.969
    79   1 H    0.997 --    41 C    0.970
    80   1 H    0.998 --    42 C    0.965
    81   1 H    0.994 --    45 C    0.963
    82   1 H    0.994 --    45 C    0.977
    83   1 H    0.996 --    45 C    0.973
 ---------------------------------------------------------------------------

Topologies differ in total number of bonds
Writing topology from bond orders to xtbtopo.mol

molecular dipole:
                 x           y           z       tot (Debye)
 q only:       -0.476       2.824      -0.897
   full:       -0.441       2.594      -0.796       6.987
molecular quadrupole (traceless):
                xx          xy          yy          xz          yz          zz
 q only:       -1.626      30.537       9.389     -12.602       8.283      -7.763
  q+dip:       -3.475      32.730       6.226      -9.485       8.176      -2.751
   full:       -3.311      29.665       9.607     -10.443      10.050      -6.297

           -------------------------------------------------
          |                Geometry Summary                 |
           -------------------------------------------------

      molecular mass/u    :      664.8068968
   center of mass at/Å    :        0.2136519      -0.6877427      -0.1100580
  moments of inertia/u·Å² :        0.6640246E+04   0.7947907E+04   0.9971139E+04
rotational constants/cm⁻¹ :        0.2538706E-02   0.2121015E-02   0.1690643E-02

 * 84 selected distances

     #   Z          #   Z                                           value/Å
     1   6 C        2   6 C                                       1.5269347
     2   6 C        3   6 C                                       1.5234359
     2   6 C        4   7 N                                       1.4822332
     5   6 C        6   6 C                                       1.5370906
     5   6 C        7   6 C                                       1.5302867
     5   6 C        8   6 C                                       1.5270397
     4   7 N        9  15 P                                       1.6535347
     9  15 P       10  16 S                                       2.1641881 (max)
    10  16 S       11  16 S                                       2.0379832
    12   6 C       13   6 C                                       1.3868917
    13   6 C       14   6 C                                       1.3822612
    14   6 C       15   6 C                                       1.3892696
    16   6 C       17   9 F                                       1.3356253
    16   6 C       18   9 F                                       1.3363626
    16   6 C       19   9 F                                       1.3503075
    15   6 C       20   6 C                                       1.3894339
    12   6 C       21   6 C                                       1.3878196
    20   6 C       21   6 C                                       1.3823833
     9  15 P       22   7 N                                       1.6669341
    22   7 N       23   6 C                                       1.4586444
    22   7 N       24   6 C                                       1.4260228
    24   6 C       25   6 C                                       1.4101466
    25   6 C       26   6 C                                       1.3642301
    26   6 C       27   6 C                                       1.4094646
    27   6 C       28   6 C                                       1.4099539
    28   6 C       29   6 C                                       1.3665058
    29   6 C       30   6 C                                       1.4028268
    30   6 C       31   6 C                                       1.3674843
    27   6 C       32   6 C                                       1.4191477
    31   6 C       32   6 C                                       1.4113032
    24   6 C       33   6 C                                       1.3775314
    32   6 C       33   6 C                                       1.4253873
    34   6 C       35   6 C                                       1.3774206
    35   6 C       36   6 C                                       1.4083445
    36   6 C       37   6 C                                       1.3644575
    37   6 C       38   6 C                                       1.4091376
    38   6 C       39   6 C                                       1.4102125
    39   6 C       40   6 C                                       1.3664289
    40   6 C       41   6 C                                       1.4030430
    41   6 C       42   6 C                                       1.3678464
    34   6 C       43   6 C                                       1.4250653
    38   6 C       43   6 C                                       1.4191926
    42   6 C       43   6 C                                       1.4124709
     9  15 P       44   7 N                                       1.6655401
    35   6 C       44   7 N                                       1.4341975
    44   7 N       45   6 C                                       1.4606660
     1   6 C       46   1 H                                       1.0872736
     1   6 C       47   1 H                                       1.0854323
     1   6 C       48   1 H                                       1.0868465
     2   6 C       49   1 H                                       1.0889438
     3   6 C       50   1 H                                       1.0865815
     3   6 C       51   1 H                                       1.0870326
     3   6 C       52   1 H                                       1.0867744
     6   6 C       53   1 H                                       1.0866741
     6   6 C       54   1 H                                       1.0866271
     6   6 C       55   1 H                                       1.0862110
     7   6 C       56   1 H                                       1.0863029
     7   6 C       57   1 H                                       1.0866338
     7   6 C       58   1 H                                       1.0870801
     8   6 C       59   1 H                                       1.0853034
     8   6 C       60   1 H                                       1.0879861
     8   6 C       61   1 H                                       1.0842626
    13   6 C       62   1 H                                       1.0797644
    14   6 C       63   1 H                                       1.0787817
    20   6 C       64   1 H                                       1.0788192
    21   6 C       65   1 H                                       1.0794025
    23   6 C       66   1 H                                       1.0898502
    23   6 C       67   1 H                                       1.0921309
    23   6 C       68   1 H                                       1.0897505
    25   6 C       69   1 H                                       1.0777403
    26   6 C       70   1 H                                       1.0791350
    28   6 C       71   1 H                                       1.0796919
    29   6 C       72   1 H                                       1.0789128
    30   6 C       73   1 H                                       1.0791882
    31   6 C       74   1 H                                       1.0790965
    36   6 C       75   1 H                                       1.0773621 (min)
    37   6 C       76   1 H                                       1.0789169
    39   6 C       77   1 H                                       1.0795325
    40   6 C       78   1 H                                       1.0788313
    41   6 C       79   1 H                                       1.0793611
    42   6 C       80   1 H                                       1.0795596
    45   6 C       81   1 H                                       1.0861553
    45   6 C       82   1 H                                       1.0893272
    45   6 C       83   1 H                                       1.0921903

 * 7 distinct bonds (by element types)

   Z      Z             #   av. dist./Å        max./Å        min./Å
   1 H    6 C          38     1.0839333     1.0921903     1.0773621
   6 C    6 C          33     1.4148621     1.5370906     1.3642301
   6 C    7 N           5     1.4523528     1.4822332     1.4260228
   6 C    9 F           3     1.3407651     1.3503075     1.3356253
   7 N   15 P           3     1.6620029     1.6669341     1.6535347
  15 P   16 S           1     2.1641881     2.1641881     2.1641881
  16 S   16 S           1     2.0379832     2.0379832     2.0379832


optimized geometry written to: xtbopt.xyz


           -------------------------------------------------
          | TOTAL ENERGY             -128.205350864864 Eh   |
          | GRADIENT NORM               0.000026821425 Eh/α |
          | HOMO-LUMO GAP               2.170014825509 eV   |
           -------------------------------------------------

------------------------------------------------------------------------
 * finished run on 2024/12/16 at 20:38:44.779     
------------------------------------------------------------------------
 total:
 * wall-time:     0 d,  0 h,  1 min, 17.802 sec
 *  cpu-time:     0 d,  0 h, 10 min, 14.838 sec
 * ratio c/w:     7.903 speedup
 SCF:
 * wall-time:     0 d,  0 h,  0 min,  2.361 sec
 *  cpu-time:     0 d,  0 h,  0 min, 18.760 sec
 * ratio c/w:     7.947 speedup
 ANC optimizer:
 * wall-time:     0 d,  0 h,  1 min, 15.273 sec
 *  cpu-time:     0 d,  0 h,  9 min, 54.782 sec
 * ratio c/w:     7.902 speedup

