      -----------------------------------------------------------      
     |                   =====================                   |     
     |                           x T B                           |     
     |                   =====================                   |     
     |                         S. Grimme                         |     
     |          Mulliken Center for Theoretical Chemistry        |     
     |                    University of Bonn                     |     
      -----------------------------------------------------------      

   * xtb version 6.7.1 (edcfbbe) compiled by 'conda@3ef47c1a292c' on 2024-11-25

   xtb is free software: you can redistribute it and/or modify it under
   the terms of the GNU Lesser General Public License as published by
   the Free Software Foundation, either version 3 of the License, or
   (at your option) any later version.
   
   xtb is distributed in the hope that it will be useful,
   but WITHOUT ANY WARRANTY; without even the implied warranty of
   MERCHANTABILITY or FITNESS FOR A PARTICULAR PURPOSE.  See the
   GNU Lesser General Public License for more details.
   
   Cite this work as:
   * C. Bannwarth, E. Caldeweyher, S. Ehlert, A. Hansen, P. Pracht,
     J. Seibert, S. Spicher, S. Grimme, WIREs Comput. Mol. Sci., 2020, 11,
     e01493. DOI: 10.1002/wcms.1493
   
   for GFN2-xTB:
   * C. Bannwarth, S. Ehlert and S. Grimme., J. Chem. Theory Comput., 2019,
     15, 1652-1671. DOI: 10.1021/acs.jctc.8b01176
   for GFN1-xTB:
   * S. Grimme, C. Bannwarth, P. Shushkov, J. Chem. Theory Comput., 2017,
     13, 1989-2009. DOI: 10.1021/acs.jctc.7b00118
   for GFN0-xTB:
   * P. Pracht, E. Caldeweyher, S. Ehlert, S. Grimme, ChemRxiv, 2019, preprint.
     DOI: 10.26434/chemrxiv.8326202.v1
   for GFN-FF:
   * S. Spicher and S. Grimme, Angew. Chem. Int. Ed., 2020, 59, 15665-15673.
     DOI: 10.1002/anie.202004239
   
   for ALPB and GBSA implicit solvation:
   * S. Ehlert, M. Stahn, S. Spicher, S. Grimme, J. Chem. Theory Comput.,
     2021, 17, 4250-4261. DOI: 10.1021/acs.jctc.1c00471
   
   for ddCOSMO and CPCM-X implicit solvation:
   * M. Stahn, S. Ehlert, S. Grimme, J. Phys. Chem. A,
     2023, XX, XXXX-XXXX. DOI: 10.1021/acs.jpca.3c04382
   
   for DFT-D4:
   * E. Caldeweyher, C. Bannwarth and S. Grimme, J. Chem. Phys., 2017,
     147, 034112. DOI: 10.1063/1.4993215
   * E. Caldeweyher, S. Ehlert, A. Hansen, H. Neugebauer, S. Spicher,
     C. Bannwarth and S. Grimme, J. Chem. Phys., 2019, 150, 154122.
     DOI: 10.1063/1.5090222
   * E. Caldeweyher, J.-M. Mewes, S. Ehlert and S. Grimme, Phys. Chem. Chem. Phys.
     2020, 22, 8499-8512. DOI: 10.1039/D0CP00502A
   
   for sTDA-xTB:
   * S. Grimme and C. Bannwarth, J. Chem. Phys., 2016, 145, 054103.
     DOI: 10.1063/1.4959605
   
   in the mass-spec context:
   * V. Asgeirsson, C. Bauer and S. Grimme, Chem. Sci., 2017, 8, 4879.
     DOI: 10.1039/c7sc00601b
   * J. Koopman and S. Grimme, ACS Omega 2019, 4, 12, 15120-15133.
     DOI: 10.1021/acsomega.9b02011
   
   for metadynamics refer to:
   * S. Grimme, J. Chem. Theory Comput., 2019, 155, 2847-2862
     DOI: 10.1021/acs.jctc.9b00143
   
   for SPH calculations refer to:
   * S. Spicher and S. Grimme, J. Chem. Theory Comput., 2021, 17, 1701-1714
     DOI: 10.1021/acs.jctc.0c01306
   
   for ONIOM refer to:
   * C. Plett, A. Katbashev, S. Ehlert, S. Grimme, M. Bursch,
     Phys. Chem. Chem. Phys., 2023, 25, 17860-17868. DOI: 10.1039/D3CP02178E
   
   for DIPRO refer to:
   * J. Kohn, N. Gildemeister, S. Grimme, D. Fazzi, A. Hansen,
     J. Chem. Phys., 2023, just accepted.
   
   for PTB refer to:
   * S. Grimme, M. Mueller, A. Hansen, J. Chem. Phys., 2023, 158, 124111.
     DOI: 10.1063/5.0137838
   
   with help from (in alphabetical order)
   P. Atkinson, C. Bannwarth, F. Bohle, G. Brandenburg, E. Caldeweyher
   M. Checinski, S. Dohm, S. Ehlert, S. Ehrlich, I. Gerasimov, C. Hölzer
   A. Katbashev, J. Kohn, J. Koopman, C. Lavigne, S. Lehtola, F. März, M. Müller,
   F. Musil, H. Neugebauer, J. Pisarek, C. Plett, P. Pracht, F. Pultar,
   J. Seibert, P. Shushkov, S. Spicher, M. Stahn, M. Steiner, T. Strunk,
   J. Stückrath, T. Rose, and J. Unsleber
   
 * started run on 2024/12/16 at 21:18:59.625     
   ID    Z sym.   atoms
    1    6 C      1, 3-7, 12-18, 20-38, 40
    2    8 O      2, 19, 39
    3   16 S      8, 9
    4   15 P      10
    5    7 N      11
    6    1 H      41-81

           -------------------------------------------------
          |                Calculation Setup                |
           -------------------------------------------------

          program call               : xtb --gfn2 --opt extreme -P 8 --charge 1 molecule.xyz
          hostname                   : node20
          coordinate file            : molecule.xyz
          omp threads                :                     8


           -------------------------------------------------
          |                 G F N 2 - x T B                 |
           -------------------------------------------------

        Reference                      10.1021/acs.jctc.8b01176
      * Hamiltonian:
        H0-scaling (s, p, d)           1.850000    2.230000    2.230000
        zeta-weighting                 0.500000
      * Dispersion:
        s8                             2.700000
        a1                             0.520000
        a2                             5.000000
        s9                             5.000000
      * Repulsion:
        kExp                           1.500000    1.000000
        rExp                           1.000000
      * Coulomb:
        alpha                          2.000000
        third order                    shell-resolved
        anisotropic                    true
        a3                             3.000000
        a5                             4.000000
        cn-shift                       1.200000
        cn-exp                         4.000000
        max-rad                        5.000000


          ...................................................
          :                      SETUP                      :
          :.................................................:
          :  # basis functions                 219          :
          :  # atomic orbitals                 216          :
          :  # shells                          124          :
          :  # electrons                       212          :
          :  max. iterations                   250          :
          :  Hamiltonian                  GFN2-xTB          :
          :  restarted?                      false          :
          :  GBSA solvation                  false          :
          :  PC potential                    false          :
          :  electronic temp.          300.0000000     K    :
          :  accuracy                    1.0000000          :
          :  -> integral cutoff          0.2500000E+02      :
          :  -> integral neglect         0.1000000E-07      :
          :  -> SCF convergence          0.1000000E-05 Eh   :
          :  -> wf. convergence          0.1000000E-03 e    :
          :  Broyden damping             0.4000000          :
          :  net charge                          1          :
          :  unpaired electrons                  0          :
          ...................................................

 iter      E             dE          RMSdq      gap      omega  full diag
   1   -116.8938154 -0.116894E+03  0.437E+00    2.67       0.0  T
   2   -117.0425655 -0.148750E+00  0.254E+00    2.81       1.0  T
   3   -117.0492020 -0.663644E-02  0.112E+00    2.51       1.0  T
   4   -117.0662239 -0.170219E-01  0.439E-01    2.31       1.0  T
   5   -117.0697936 -0.356978E-02  0.189E-01    2.35       1.0  T
   6   -117.0708079 -0.101431E-02  0.746E-02    2.35       1.0  T
   7   -117.0708922 -0.842424E-04  0.328E-02    2.36       1.0  T
   8   -117.0709113 -0.191182E-04  0.161E-02    2.37       1.0  T
   9   -117.0709176 -0.633889E-05  0.813E-03    2.37       1.4  T
  10   -117.0709186 -0.993573E-06  0.371E-03    2.37       3.0  T
  11   -117.0709189 -0.227003E-06  0.208E-03    2.37       5.3  T
  12   -117.0709189 -0.366872E-07  0.115E-03    2.37       9.7  T
  13   -117.0709189 -0.350131E-07  0.555E-04    2.36      20.0  T
  14   -117.0709189 -0.332112E-08  0.265E-04    2.36      42.0  T

   *** convergence criteria satisfied after 14 iterations ***

         #    Occupation            Energy/Eh            Energy/eV
      -------------------------------------------------------------
         1        2.0000           -0.8698473             -23.6698
       ...           ...                  ...                  ...
       100        2.0000           -0.5088950             -13.8477
       101        2.0000           -0.5028895             -13.6843
       102        2.0000           -0.4912130             -13.3666
       103        2.0000           -0.4886134             -13.2958
       104        2.0000           -0.4843304             -13.1793
       105        2.0000           -0.4803886             -13.0720
       106        2.0000           -0.4768184             -12.9749 (HOMO)
       107                         -0.3899072             -10.6099 (LUMO)
       108                         -0.3625204              -9.8647
       109                         -0.3359389              -9.1414
       110                         -0.3303172              -8.9884
       111                         -0.3275205              -8.9123
       ...                                ...                  ...
       216                          0.9735468              26.4916
      -------------------------------------------------------------
                  HL-Gap            0.0869112 Eh            2.3650 eV
             Fermi-level           -0.4333628 Eh          -11.7924 eV

 SCC (total)                   0 d,  0 h,  0 min,  2.179 sec
 SCC setup                      ...        0 min,  0.000 sec (  0.013%)
 Dispersion                     ...        0 min,  0.001 sec (  0.055%)
 classical contributions        ...        0 min,  0.000 sec (  0.005%)
 integral evaluation            ...        0 min,  0.006 sec (  0.277%)
 iterations                     ...        0 min,  2.052 sec ( 94.190%)
 molecular gradient             ...        0 min,  0.114 sec (  5.249%)
 printout                       ...        0 min,  0.005 sec (  0.210%)

         :::::::::::::::::::::::::::::::::::::::::::::::::::::
         ::                     SUMMARY                     ::
         :::::::::::::::::::::::::::::::::::::::::::::::::::::
         :: total energy            -115.497759634404 Eh    ::
         :: gradient norm              0.114255921221 Eh/a0 ::
         :: HOMO-LUMO gap              2.364974318884 eV    ::
         ::.................................................::
         :: SCC energy              -117.064629961997 Eh    ::
         :: -> isotropic ES            0.116512487094 Eh    ::
         :: -> anisotropic ES          0.002922290226 Eh    ::
         :: -> anisotropic XC          0.055846602684 Eh    ::
         :: -> dispersion             -0.119373105993 Eh    ::
         :: repulsion energy           1.566870327593 Eh    ::
         :: add. restraining           0.000000000000 Eh    ::
         :: total charge               1.000000000000 e     ::
         :::::::::::::::::::::::::::::::::::::::::::::::::::::

      ----------------------------------------------------------- 
     |                   =====================                   |
     |                        A N C O P T                        |
     |                   =====================                   |
     |               Approximate Normal Coordinate               |
     |                Rational Function Optimizer                |
      ----------------------------------------------------------- 
      ----------------------------------------------------------- 
     |                   =====================                   |
     |                        A N C O P T                        |
     |                   =====================                   |
     |               Approximate Normal Coordinate               |
     |                Rational Function Optimizer                |
      ----------------------------------------------------------- 

          ...................................................
          :                      SETUP                      :
          :.................................................:
          :   optimization level           extreme          :
          :   max. optcycles                  1620          :
          :   ANC micro-cycles                  20          :
          :   degrees of freedom               237          :
          :.................................................:
          :   RF solver                   davidson          :
          :   write xtbopt.log                true          :
          :   linear?                        false          :
          :   energy convergence         0.5000000E-07 Eh   :
          :   grad. convergence          0.5000000E-04 Eh/α :
          :   maxmium RF displ.          1.0000000          :
          :   Hlow (freq-cutoff)         0.1000000E-01      :
          :   Hmax (freq-cutoff)         5.0000000          :
          :   S6 in model hess.         20.0000000          :
          ...................................................

generating ANC from exact Hessian ...
Using Lindh-Hessian (1995)
 Shifting diagonal of input Hessian by    9.9196574053300977E-003
 Lowest  eigenvalues of input Hessian
    0.000000    0.000000    0.000000    0.000000    0.000000    0.000000
    0.010000    0.010016    0.010133    0.010300    0.010407    0.010465
    0.010618    0.010702    0.011237    0.011282    0.011480    0.011585
 Highest eigenvalues
    1.965574    1.981314    2.005119    2.042118    2.082445    2.102812


........................................................................
.............................. CYCLE    1 ..............................
........................................................................

 iter      E             dE          RMSdq      gap      omega  full diag
   1   -117.0709189 -0.117071E+03  0.128E-04    2.36       0.0  T
   2   -117.0709189 -0.145789E-09  0.836E-05    2.36     132.8  T
   3   -117.0709189 -0.424194E-10  0.582E-05    2.36     190.8  T
     SCC iter.                  ...        0 min,  0.276 sec
     gradient                   ...        0 min,  0.112 sec
 * total energy  :  -115.4977596 Eh     change       -0.1734037E-08 Eh
   gradient norm :     0.1142558 Eh/α   predicted     0.0000000E+00 (-100.00%)
   displ. norm   :     0.4190460 α      lambda       -0.2534597E-01
   maximum displ.:     0.1587888 α      in ANC's #88, #61, #36, ...

........................................................................
.............................. CYCLE    2 ..............................
........................................................................

 iter      E             dE          RMSdq      gap      omega  full diag
   1   -117.1358839 -0.117136E+03  0.271E-01    2.50       0.0  T
   2   -117.1362434 -0.359488E-03  0.154E-01    2.56       1.0  T
   3   -117.1361389  0.104548E-03  0.782E-02    2.56       1.0  T
   4   -117.1363807 -0.241831E-03  0.266E-02    2.57       1.0  T
   5   -117.1363938 -0.131112E-04  0.110E-02    2.57       1.0  T
   6   -117.1363966 -0.276666E-05  0.523E-03    2.57       2.1  T
   7   -117.1363973 -0.750989E-06  0.270E-03    2.57       4.1  T
   8   -117.1363975 -0.141128E-06  0.146E-03    2.57       7.6  T
   9   -117.1363975 -0.221701E-07  0.718E-04    2.57      15.5  T
  10   -117.1363975 -0.756343E-08  0.394E-04    2.57      28.2  T
     SCC iter.                  ...        0 min,  1.582 sec
     gradient                   ...        0 min,  0.116 sec
 * total energy  :  -115.5142842 Eh     change       -0.1652454E-01 Eh
   gradient norm :     0.0546845 Eh/α   predicted    -0.1491253E-01 (  -9.76%)
   displ. norm   :     0.3921094 α      lambda       -0.7606173E-02
   maximum displ.:     0.1536023 α      in ANC's #14, #17, #6, ...

........................................................................
.............................. CYCLE    3 ..............................
........................................................................

 iter      E             dE          RMSdq      gap      omega  full diag
   1   -117.1742811 -0.117174E+03  0.149E-01    2.63       0.0  T
   2   -117.1743893 -0.108243E-03  0.834E-02    2.66       1.0  T
   3   -117.1743601  0.292380E-04  0.418E-02    2.66       1.0  T
   4   -117.1744335 -0.734219E-04  0.141E-02    2.67       1.0  T
   5   -117.1744360 -0.254202E-05  0.487E-03    2.66       2.3  T
   6   -117.1744367 -0.641694E-06  0.245E-03    2.66       4.5  T
   7   -117.1744368 -0.174807E-06  0.119E-03    2.66       9.4  T
   8   -117.1744369 -0.241509E-07  0.677E-04    2.66      16.4  T
   9   -117.1744369 -0.553581E-08  0.327E-04    2.66      34.0  T
     SCC iter.                  ...        0 min,  1.164 sec
     gradient                   ...        0 min,  0.119 sec
 * total energy  :  -115.5188736 Eh     change       -0.4589456E-02 Eh
   gradient norm :     0.0259363 Eh/α   predicted    -0.4387853E-02 (  -4.39%)
   displ. norm   :     0.3606380 α      lambda       -0.2601117E-02
   maximum displ.:     0.1901314 α      in ANC's #14, #36, #6, ...

........................................................................
.............................. CYCLE    4 ..............................
........................................................................

 iter      E             dE          RMSdq      gap      omega  full diag
   1   -117.1813719 -0.117181E+03  0.899E-02    2.67       0.0  T
   2   -117.1814079 -0.360071E-04  0.500E-02    2.67       1.0  T
   3   -117.1814006  0.734434E-05  0.232E-02    2.67       1.0  T
   4   -117.1814148 -0.142119E-04  0.790E-03    2.68       1.4  T
   5   -117.1814169 -0.208523E-05  0.379E-03    2.68       2.9  T
   6   -117.1814169 -0.419345E-07  0.221E-03    2.68       5.0  T
   7   -117.1814170 -0.599981E-07  0.128E-03    2.68       8.7  T
   8   -117.1814170 -0.182753E-07  0.653E-04    2.68      17.0  T
   9   -117.1814170 -0.579008E-08  0.320E-04    2.68      34.7  T
     SCC iter.                  ...        0 min,  1.141 sec
     gradient                   ...        0 min,  0.115 sec
 * total energy  :  -115.5205447 Eh     change       -0.1671024E-02 Eh
   gradient norm :     0.0137348 Eh/α   predicted    -0.1469711E-02 ( -12.05%)
   displ. norm   :     0.4125874 α      lambda       -0.1693294E-02
   maximum displ.:     0.2237225 α      in ANC's #14, #6, #5, ...

........................................................................
.............................. CYCLE    5 ..............................
........................................................................

 iter      E             dE          RMSdq      gap      omega  full diag
   1   -117.1804384 -0.117180E+03  0.951E-02    2.68       0.0  T
   2   -117.1804598 -0.213984E-04  0.435E-02    2.69       1.0  T
   3   -117.1804588  0.982978E-06  0.128E-02    2.69       1.0  T
   4   -117.1804613 -0.251069E-05  0.820E-03    2.69       1.4  T
   5   -117.1804639 -0.260798E-05  0.269E-03    2.69       4.1  T
   6   -117.1804640 -0.107500E-06  0.111E-03    2.69      10.0  T
   7   -117.1804641 -0.374245E-07  0.588E-04    2.69      18.9  T
   8   -117.1804641 -0.304064E-08  0.294E-04    2.69      37.7  T
     SCC iter.                  ...        0 min,  0.942 sec
     gradient                   ...        0 min,  0.116 sec
 * total energy  :  -115.5216707 Eh     change       -0.1126017E-02 Eh
   gradient norm :     0.0100793 Eh/α   predicted    -0.9907834E-03 ( -12.01%)
   displ. norm   :     0.3900940 α      lambda       -0.9377163E-03
   maximum displ.:     0.2094352 α      in ANC's #14, #6, #5, ...

........................................................................
.............................. CYCLE    6 ..............................
........................................................................

 iter      E             dE          RMSdq      gap      omega  full diag
   1   -117.1776303 -0.117178E+03  0.653E-02    2.71       0.0  T
   2   -117.1776408 -0.104684E-04  0.328E-02    2.70       1.0  T
   3   -117.1776387  0.215339E-05  0.106E-02    2.70       1.0  T
   4   -117.1776419 -0.327473E-05  0.565E-03    2.70       2.0  T
   5   -117.1776430 -0.108104E-05  0.173E-03    2.70       6.4  T
   6   -117.1776431 -0.122984E-06  0.687E-04    2.70      16.2  T
   7   -117.1776431 -0.137781E-07  0.341E-04    2.70      32.6  T
     SCC iter.                  ...        0 min,  0.833 sec
     gradient                   ...        0 min,  0.115 sec
 * total energy  :  -115.5223647 Eh     change       -0.6940088E-03 Eh
   gradient norm :     0.0110561 Eh/α   predicted    -0.5402073E-03 ( -22.16%)
   displ. norm   :     0.4254943 α      lambda       -0.7845532E-03
   maximum displ.:     0.2037495 α      in ANC's #14, #5, #6, ...

........................................................................
.............................. CYCLE    7 ..............................
........................................................................

 iter      E             dE          RMSdq      gap      omega  full diag
   1   -117.1764232 -0.117176E+03  0.623E-02    2.71       0.0  T
   2   -117.1764293 -0.607353E-05  0.318E-02    2.70       1.0  T
   3   -117.1764257  0.355101E-05  0.110E-02    2.70       1.0  T
   4   -117.1764309 -0.514966E-05  0.465E-03    2.70       2.4  T
   5   -117.1764312 -0.383108E-06  0.121E-03    2.70       9.2  T
   6   -117.1764313 -0.386885E-07  0.644E-04    2.70      17.3  T
   7   -117.1764313 -0.817255E-08  0.364E-04    2.70      30.5  T
     SCC iter.                  ...        0 min,  0.831 sec
     gradient                   ...        0 min,  0.114 sec
 * total energy  :  -115.5229624 Eh     change       -0.5976687E-03 Eh
   gradient norm :     0.0103142 Eh/α   predicted    -0.4632973E-03 ( -22.48%)
   displ. norm   :     0.4434326 α      lambda       -0.6584077E-03
   maximum displ.:     0.2172623 α      in ANC's #5, #6, #14, ...

........................................................................
.............................. CYCLE    8 ..............................
........................................................................

 iter      E             dE          RMSdq      gap      omega  full diag
   1   -117.1769576 -0.117177E+03  0.622E-02    2.71       0.0  T
   2   -117.1769643 -0.677073E-05  0.309E-02    2.70       1.0  T
   3   -117.1769625  0.184227E-05  0.999E-03    2.70       1.1  T
   4   -117.1769654 -0.287991E-05  0.497E-03    2.70       2.2  T
   5   -117.1769660 -0.658971E-06  0.112E-03    2.70       9.9  T
   6   -117.1769661 -0.120944E-07  0.590E-04    2.70      18.8  T
   7   -117.1769661 -0.546120E-08  0.330E-04    2.70      33.7  T
     SCC iter.                  ...        0 min,  0.768 sec
     gradient                   ...        0 min,  0.114 sec
 * total energy  :  -115.5234577 Eh     change       -0.4953470E-03 Eh
   gradient norm :     0.0077698 Eh/α   predicted    -0.3939383E-03 ( -20.47%)
   displ. norm   :     0.4144190 α      lambda       -0.4744101E-03
   maximum displ.:     0.2188192 α      in ANC's #5, #6, #14, ...

........................................................................
.............................. CYCLE    9 ..............................
........................................................................

 iter      E             dE          RMSdq      gap      omega  full diag
   1   -117.1789334 -0.117179E+03  0.574E-02    2.70       0.0  T
   2   -117.1789381 -0.467875E-05  0.295E-02    2.69       1.0  T
   3   -117.1789366  0.150632E-05  0.901E-03    2.69       1.2  T
   4   -117.1789386 -0.201877E-05  0.471E-03    2.69       2.4  T
   5   -117.1789393 -0.665696E-06  0.108E-03    2.69      10.3  T
   6   -117.1789393 -0.291208E-07  0.507E-04    2.69      21.9  T
   7   -117.1789393 -0.293393E-08  0.315E-04    2.69      35.3  T
     SCC iter.                  ...        0 min,  0.802 sec
     gradient                   ...        0 min,  0.115 sec
 * total energy  :  -115.5238158 Eh     change       -0.3581022E-03 Eh
   gradient norm :     0.0053896 Eh/α   predicted    -0.2779437E-03 ( -22.38%)
   displ. norm   :     0.3737240 α      lambda       -0.3372213E-03
   maximum displ.:     0.2121439 α      in ANC's #5, #6, #3, ...

........................................................................
.............................. CYCLE   10 ..............................
........................................................................

 iter      E             dE          RMSdq      gap      omega  full diag
   1   -117.1806518 -0.117181E+03  0.572E-02    2.69       0.0  T
   2   -117.1806568 -0.507034E-05  0.293E-02    2.68       1.0  T
   3   -117.1806563  0.494961E-06  0.849E-03    2.68       1.3  T
   4   -117.1806573 -0.959585E-06  0.441E-03    2.68       2.5  T
   5   -117.1806578 -0.520388E-06  0.991E-04    2.68      11.2  T
   6   -117.1806578 -0.173904E-07  0.410E-04    2.68      27.1  T
     SCC iter.                  ...        0 min,  0.705 sec
     gradient                   ...        0 min,  0.119 sec
 * total energy  :  -115.5240744 Eh     change       -0.2585505E-03 Eh
   gradient norm :     0.0043920 Eh/α   predicted    -0.1921637E-03 ( -25.68%)
   displ. norm   :     0.3495003 α      lambda       -0.2605385E-03
   maximum displ.:     0.2071939 α      in ANC's #5, #6, #3, ...

........................................................................
.............................. CYCLE   11 ..............................
........................................................................

 iter      E             dE          RMSdq      gap      omega  full diag
   1   -117.1817743 -0.117182E+03  0.502E-02    2.68       0.0  T
   2   -117.1817778 -0.347321E-05  0.266E-02    2.68       1.0  T
   3   -117.1817773  0.516646E-06  0.732E-03    2.68       1.5  T
   4   -117.1817781 -0.809235E-06  0.359E-03    2.68       3.1  T
   5   -117.1817784 -0.376725E-06  0.855E-04    2.68      13.0  T
   6   -117.1817785 -0.142712E-07  0.358E-04    2.68      31.0  T
     SCC iter.                  ...        0 min,  0.687 sec
     gradient                   ...        0 min,  0.115 sec
 * total energy  :  -115.5242760 Eh     change       -0.2016899E-03 Eh
   gradient norm :     0.0044932 Eh/α   predicted    -0.1461860E-03 ( -27.52%)
   displ. norm   :     0.3213157 α      lambda       -0.2048254E-03
   maximum displ.:     0.1958441 α      in ANC's #5, #6, #3, ...

........................................................................
.............................. CYCLE   12 ..............................
........................................................................

 iter      E             dE          RMSdq      gap      omega  full diag
   1   -117.1820739 -0.117182E+03  0.440E-02    2.68       0.0  T
   2   -117.1820760 -0.213045E-05  0.234E-02    2.68       1.0  T
   3   -117.1820757  0.360205E-06  0.580E-03    2.68       1.9  T
   4   -117.1820761 -0.434944E-06  0.290E-03    2.68       3.8  T
   5   -117.1820765 -0.338243E-06  0.782E-04    2.68      14.2  T
   6   -117.1820765 -0.151927E-07  0.362E-04    2.68      30.7  T
     SCC iter.                  ...        0 min,  0.666 sec
     gradient                   ...        0 min,  0.119 sec
 * total energy  :  -115.5244343 Eh     change       -0.1582460E-03 Eh
   gradient norm :     0.0044701 Eh/α   predicted    -0.1129869E-03 ( -28.60%)
   displ. norm   :     0.2840262 α      lambda       -0.1545725E-03
   maximum displ.:     0.1758812 α      in ANC's #5, #1, #6, ...

........................................................................
.............................. CYCLE   13 ..............................
........................................................................

 iter      E             dE          RMSdq      gap      omega  full diag
   1   -117.1819221 -0.117182E+03  0.340E-02    2.68       0.0  T
   2   -117.1819232 -0.107898E-05  0.185E-02    2.68       1.0  T
   3   -117.1819229  0.316846E-06  0.433E-03    2.68       2.6  T
   4   -117.1819233 -0.386034E-06  0.202E-03    2.68       5.5  T
   5   -117.1819234 -0.152702E-06  0.746E-04    2.68      14.9  T
   6   -117.1819235 -0.194289E-07  0.336E-04    2.68      33.1  T
     SCC iter.                  ...        0 min,  0.556 sec
     gradient                   ...        0 min,  0.114 sec
 * total energy  :  -115.5245527 Eh     change       -0.1184259E-03 Eh
   gradient norm :     0.0036110 Eh/α   predicted    -0.8352203E-04 ( -29.47%)
   displ. norm   :     0.2502383 α      lambda       -0.1152353E-03
   maximum displ.:     0.1553372 α      in ANC's #5, #1, #9, ...

........................................................................
.............................. CYCLE   14 ..............................
........................................................................

 iter      E             dE          RMSdq      gap      omega  full diag
   1   -117.1815222 -0.117182E+03  0.273E-02    2.68       0.0  T
   2   -117.1815231 -0.904998E-06  0.149E-02    2.68       1.0  T
   3   -117.1815228  0.277255E-06  0.401E-03    2.68       2.8  T
   4   -117.1815232 -0.409799E-06  0.162E-03    2.68       6.9  T
   5   -117.1815233 -0.557454E-07  0.714E-04    2.68      15.6  T
   6   -117.1815233 -0.179775E-07  0.304E-04    2.68      36.5  T
     SCC iter.                  ...        0 min,  0.706 sec
     gradient                   ...        0 min,  0.116 sec
 * total energy  :  -115.5246414 Eh     change       -0.8867109E-04 Eh
   gradient norm :     0.0025113 Eh/α   predicted    -0.6123048E-04 ( -30.95%)
   displ. norm   :     0.2434395 α      lambda       -0.9664705E-04
   maximum displ.:     0.1477354 α      in ANC's #5, #1, #9, ...

........................................................................
.............................. CYCLE   15 ..............................
........................................................................

 iter      E             dE          RMSdq      gap      omega  full diag
   1   -117.1811399 -0.117181E+03  0.240E-02    2.69       0.0  T
   2   -117.1811408 -0.820217E-06  0.134E-02    2.69       1.0  T
   3   -117.1811404  0.314942E-06  0.389E-03    2.69       2.9  T
   4   -117.1811409 -0.451447E-06  0.139E-03    2.69       8.0  T
   5   -117.1811409 -0.434412E-07  0.648E-04    2.69      17.2  T
   6   -117.1811410 -0.136664E-07  0.265E-04    2.69      41.9  T
     SCC iter.                  ...        0 min,  0.735 sec
     gradient                   ...        0 min,  0.127 sec
 * total energy  :  -115.5247162 Eh     change       -0.7478337E-04 Eh
   gradient norm :     0.0025129 Eh/α   predicted    -0.5119157E-04 ( -31.55%)
   displ. norm   :     0.2702899 α      lambda       -0.9225946E-04
   maximum displ.:     0.1578066 α      in ANC's #5, #1, #9, ...

........................................................................
.............................. CYCLE   16 ..............................
........................................................................

 iter      E             dE          RMSdq      gap      omega  full diag
   1   -117.1807155 -0.117181E+03  0.248E-02    2.69       0.0  T
   2   -117.1807162 -0.687726E-06  0.142E-02    2.69       1.0  T
   3   -117.1807158  0.427634E-06  0.374E-03    2.69       3.0  T
   4   -117.1807163 -0.546218E-06  0.127E-03    2.69       8.8  T
   5   -117.1807164 -0.547726E-07  0.596E-04    2.69      18.6  T
   6   -117.1807164 -0.116184E-07  0.234E-04    2.69      47.5  T
     SCC iter.                  ...        0 min,  0.731 sec
     gradient                   ...        0 min,  0.123 sec
 * total energy  :  -115.5247864 Eh     change       -0.7027818E-04 Eh
   gradient norm :     0.0033066 Eh/α   predicted    -0.4950205E-04 ( -29.56%)
   displ. norm   :     0.2825003 α      lambda       -0.8423167E-04
   maximum displ.:     0.1554981 α      in ANC's #5, #1, #3, ...

........................................................................
.............................. CYCLE   17 ..............................
........................................................................

 iter      E             dE          RMSdq      gap      omega  full diag
   1   -117.1806868 -0.117181E+03  0.259E-02    2.69       0.0  T
   2   -117.1806872 -0.483091E-06  0.148E-02    2.69       1.0  T
   3   -117.1806868  0.420925E-06  0.339E-03    2.69       3.3  T
   4   -117.1806873 -0.489846E-06  0.137E-03    2.69       8.1  T
   5   -117.1806874 -0.769688E-07  0.540E-04    2.69      20.6  T
   6   -117.1806874 -0.108652E-07  0.195E-04    2.69      57.0  T
     SCC iter.                  ...        0 min,  0.784 sec
     gradient                   ...        0 min,  0.119 sec
 * total energy  :  -115.5248492 Eh     change       -0.6270949E-04 Eh
   gradient norm :     0.0034082 Eh/α   predicted    -0.4547965E-04 ( -27.48%)
   displ. norm   :     0.2351068 α      lambda       -0.6631572E-04
   maximum displ.:     0.1139076 α      in ANC's #5, #1, #2, ...

........................................................................
.............................. CYCLE   18 ..............................
........................................................................

 iter      E             dE          RMSdq      gap      omega  full diag
   1   -117.1811874 -0.117181E+03  0.241E-02    2.69       0.0  T
   2   -117.1811879 -0.457716E-06  0.131E-02    2.69       1.0  T
   3   -117.1811877  0.207826E-06  0.320E-03    2.69       3.5  T
   4   -117.1811879 -0.215870E-06  0.162E-03    2.69       6.8  T
   5   -117.1811880 -0.116405E-06  0.357E-04    2.69      31.1  T
   6   -117.1811880 -0.437905E-08  0.161E-04    2.69      68.8  T
     SCC iter.                  ...        0 min,  0.814 sec
     gradient                   ...        0 min,  0.118 sec
 * total energy  :  -115.5248986 Eh     change       -0.4939775E-04 Eh
   gradient norm :     0.0024608 Eh/α   predicted    -0.3499278E-04 ( -29.16%)
   displ. norm   :     0.1833377 α      lambda       -0.4916177E-04
   maximum displ.:     0.0930291 α      in ANC's #1, #5, #2, ...

........................................................................
.............................. CYCLE   19 ..............................
........................................................................

 iter      E             dE          RMSdq      gap      omega  full diag
   1   -117.1818291 -0.117182E+03  0.218E-02    2.69       0.0  T
   2   -117.1818297 -0.544425E-06  0.113E-02    2.69       1.0  T
   3   -117.1818296  0.749902E-07  0.301E-03    2.69       3.7  T
   4   -117.1818297 -0.104298E-06  0.156E-03    2.69       7.1  T
   5   -117.1818298 -0.833254E-07  0.336E-04    2.69      33.1  T
   6   -117.1818298 -0.287105E-08  0.157E-04    2.69      70.7  T
     SCC iter.                  ...        0 min,  0.750 sec
     gradient                   ...        0 min,  0.115 sec
 * total energy  :  -115.5249347 Eh     change       -0.3609963E-04 Eh
   gradient norm :     0.0014419 Eh/α   predicted    -0.2541038E-04 ( -29.61%)
   displ. norm   :     0.2090983 α      lambda       -0.3276197E-04
   maximum displ.:     0.1140142 α      in ANC's #1, #3, #2, ...

........................................................................
.............................. CYCLE   20 ..............................
........................................................................

 iter      E             dE          RMSdq      gap      omega  full diag
   1   -117.1822768 -0.117182E+03  0.265E-02    2.69       0.0  T
   2   -117.1822775 -0.762374E-06  0.136E-02    2.69       1.0  T
   3   -117.1822775  0.292703E-07  0.346E-03    2.69       3.2  T
   4   -117.1822776 -0.568524E-07  0.177E-03    2.69       6.3  T
   5   -117.1822777 -0.114439E-06  0.401E-04    2.69      27.7  T
   6   -117.1822777 -0.372019E-08  0.165E-04    2.69      67.3  T
     SCC iter.                  ...        0 min,  0.802 sec
     gradient                   ...        0 min,  0.114 sec
 * total energy  :  -115.5249654 Eh     change       -0.3074343E-04 Eh
   gradient norm :     0.0021396 Eh/α   predicted    -0.1670172E-04 ( -45.67%)
   displ. norm   :     0.0661343 α      lambda       -0.1657888E-04
   maximum displ.:     0.0389624 α      in ANC's #1, #2, #3, ...
 * RMSD in coord.:     0.5221115 α      energy gain  -0.2720576E-01 Eh

generating ANC from exact Hessian ...
Using Lindh-Hessian (1995)
 Shifting diagonal of input Hessian by    9.9151913491238568E-003
 Lowest  eigenvalues of input Hessian
    0.000000    0.000000    0.000000    0.000000    0.000000    0.000000
    0.010000    0.010028    0.010136    0.010339    0.010406    0.010541
    0.010659    0.010672    0.011056    0.011284    0.011407    0.011596
 Highest eigenvalues
    2.017360    2.033430    2.045583    2.114709    2.125129    2.218071


........................................................................
.............................. CYCLE   21 ..............................
........................................................................

 iter      E             dE          RMSdq      gap      omega  full diag
   1   -117.1823202 -0.117182E+03  0.726E-03    2.70       0.0  T
   2   -117.1823202 -0.456166E-07  0.408E-03    2.69       2.7  T
   3   -117.1823202  0.325412E-07  0.101E-03    2.69      11.0  T
   4   -117.1823202 -0.368842E-07  0.464E-04    2.69      23.9  T
   5   -117.1823203 -0.781203E-08  0.153E-04    2.69      72.7  T
     SCC iter.                  ...        0 min,  0.596 sec
     gradient                   ...        0 min,  0.114 sec
 * total energy  :  -115.5249799 Eh     change       -0.1451030E-04 Eh
   gradient norm :     0.0018146 Eh/α   predicted     0.0000000E+00 (-100.00%)
   displ. norm   :     0.0364313 α      lambda       -0.4456235E-05
   maximum displ.:     0.0182807 α      in ANC's #1, #5, #14, ...

........................................................................
.............................. CYCLE   22 ..............................
........................................................................

 iter      E             dE          RMSdq      gap      omega  full diag
   1   -117.1818579 -0.117182E+03  0.506E-03    2.70       0.0  T
   2   -117.1818580 -0.770900E-07  0.278E-03    2.70       4.0  T
   3   -117.1818579  0.219875E-07  0.107E-03    2.70      10.4  T
   4   -117.1818580 -0.380896E-07  0.467E-04    2.70      23.8  T
   5   -117.1818580 -0.376335E-08  0.189E-04    2.70      58.8  T
     SCC iter.                  ...        0 min,  0.413 sec
     gradient                   ...        0 min,  0.114 sec
 * total energy  :  -115.5249925 Eh     change       -0.1255404E-04 Eh
   gradient norm :     0.0009201 Eh/α   predicted    -0.4999231E-05 ( -60.18%)
   displ. norm   :     0.1129047 α      lambda       -0.2128317E-04
   maximum displ.:     0.0584296 α      in ANC's #1, #5, #14, ...

........................................................................
.............................. CYCLE   23 ..............................
........................................................................

 iter      E             dE          RMSdq      gap      omega  full diag
   1   -117.1815960 -0.117182E+03  0.135E-02    2.70       0.0  T
   2   -117.1815963 -0.300483E-06  0.754E-03    2.70       1.5  T
   3   -117.1815962  0.150275E-06  0.225E-03    2.70       4.9  T
   4   -117.1815964 -0.194240E-06  0.960E-04    2.70      11.6  T
   5   -117.1815964 -0.290537E-07  0.367E-04    2.70      30.3  T
     SCC iter.                  ...        0 min,  0.704 sec
     gradient                   ...        0 min,  0.115 sec
 * total energy  :  -115.5250115 Eh     change       -0.1899654E-04 Eh
   gradient norm :     0.0013258 Eh/α   predicted    -0.1070234E-04 ( -43.66%)
   displ. norm   :     0.1160140 α      lambda       -0.1667738E-04
   maximum displ.:     0.0629415 α      in ANC's #1, #5, #3, ...

........................................................................
.............................. CYCLE   24 ..............................
........................................................................

 iter      E             dE          RMSdq      gap      omega  full diag
   1   -117.1816453 -0.117182E+03  0.240E-02    2.70       0.0  T
   2   -117.1816466 -0.129094E-05  0.111E-02    2.70       1.0  T
   3   -117.1816466 -0.190728E-07  0.354E-03    2.70       3.1  T
   4   -117.1816466 -0.142300E-07  0.194E-03    2.70       5.7  T
   5   -117.1816468 -0.158365E-06  0.827E-04    2.70      13.4  T
   6   -117.1816468 -0.105328E-07  0.412E-04    2.70      27.0  T
     SCC iter.                  ...        0 min,  0.816 sec
     gradient                   ...        0 min,  0.119 sec
 * total energy  :  -115.5250145 Eh     change       -0.3063440E-05 Eh
   gradient norm :     0.0024766 Eh/α   predicted    -0.8389257E-05 ( 173.85%)
   displ. norm   :     0.0213806 α      lambda       -0.1406752E-04
   maximum displ.:     0.0120633 α      in ANC's #1, #2, #9, ...

........................................................................
.............................. CYCLE   25 ..............................
........................................................................

 iter      E             dE          RMSdq      gap      omega  full diag
   1   -117.1817565 -0.117182E+03  0.674E-03    2.69       0.0  T
   2   -117.1817566 -0.147063E-06  0.321E-03    2.69       3.5  T
   3   -117.1817566 -0.197095E-08  0.107E-03    2.69      10.4  T
   4   -117.1817567 -0.666012E-08  0.491E-04    2.69      22.6  T
   5   -117.1817567 -0.794593E-08  0.227E-04    2.69      49.0  T
     SCC iter.                  ...        0 min,  0.603 sec
     gradient                   ...        0 min,  0.115 sec
 * total energy  :  -115.5250258 Eh     change       -0.1124614E-04 Eh
   gradient norm :     0.0018274 Eh/α   predicted    -0.7037295E-05 ( -37.42%)
   displ. norm   :     0.0863776 α      lambda       -0.1850306E-04
   maximum displ.:     0.0540557 α      in ANC's #1, #2, #5, ...

........................................................................
.............................. CYCLE   26 ..............................
........................................................................

 iter      E             dE          RMSdq      gap      omega  full diag
   1   -117.1820606 -0.117182E+03  0.169E-02    2.69       0.0  T
   2   -117.1820614 -0.783214E-06  0.821E-03    2.69       1.4  T
   3   -117.1820614 -0.680897E-08  0.271E-03    2.69       4.1  T
   4   -117.1820615 -0.633569E-07  0.125E-03    2.69       8.9  T
   5   -117.1820615 -0.313317E-07  0.562E-04    2.69      19.8  T
   6   -117.1820615 -0.620405E-08  0.233E-04    2.69      47.6  T
     SCC iter.                  ...        0 min,  0.695 sec
     gradient                   ...        0 min,  0.116 sec
 * total energy  :  -115.5250394 Eh     change       -0.1362450E-04 Eh
   gradient norm :     0.0009352 Eh/α   predicted    -0.9283249E-05 ( -31.86%)
   displ. norm   :     0.0596202 α      lambda       -0.6879426E-05
   maximum displ.:     0.0386877 α      in ANC's #1, #2, #5, ...

........................................................................
.............................. CYCLE   27 ..............................
........................................................................

 iter      E             dE          RMSdq      gap      omega  full diag
   1   -117.1820758 -0.117182E+03  0.789E-03    2.69       0.0  T
   2   -117.1820759 -0.717078E-07  0.404E-03    2.69       2.7  T
   3   -117.1820759  0.317974E-08  0.107E-03    2.69      10.4  T
   4   -117.1820759 -0.604814E-09  0.556E-04    2.69      20.0  T
   5   -117.1820759 -0.144825E-07  0.136E-04    2.69      81.4  T
     SCC iter.                  ...        0 min,  0.569 sec
     gradient                   ...        0 min,  0.116 sec
 * total energy  :  -115.5250481 Eh     change       -0.8696620E-05 Eh
   gradient norm :     0.0007121 Eh/α   predicted    -0.3446172E-05 ( -60.37%)
   displ. norm   :     0.1453087 α      lambda       -0.1692591E-04
   maximum displ.:     0.0919224 α      in ANC's #1, #2, #5, ...

........................................................................
.............................. CYCLE   28 ..............................
........................................................................

 iter      E             dE          RMSdq      gap      omega  full diag
   1   -117.1820768 -0.117182E+03  0.237E-02    2.69       0.0  T
   2   -117.1820775 -0.642427E-06  0.115E-02    2.69       1.0  T
   3   -117.1820774  0.764427E-07  0.309E-03    2.69       3.6  T
   4   -117.1820775 -0.933179E-07  0.179E-03    2.69       6.2  T
   5   -117.1820776 -0.127237E-06  0.555E-04    2.69      20.0  T
   6   -117.1820776 -0.419512E-08  0.291E-04    2.69      38.1  T
     SCC iter.                  ...        0 min,  0.736 sec
     gradient                   ...        0 min,  0.119 sec
 * total energy  :  -115.5250609 Eh     change       -0.1283229E-04 Eh
   gradient norm :     0.0010729 Eh/α   predicted    -0.8542647E-05 ( -33.43%)
   displ. norm   :     0.0958409 α      lambda       -0.8874244E-05
   maximum displ.:     0.0628436 α      in ANC's #1, #2, #10, ...

........................................................................
.............................. CYCLE   29 ..............................
........................................................................

 iter      E             dE          RMSdq      gap      omega  full diag
   1   -117.1820258 -0.117182E+03  0.107E-02    2.70       0.0  T
   2   -117.1820259 -0.959612E-07  0.593E-03    2.70       1.9  T
   3   -117.1820259  0.256597E-07  0.122E-03    2.70       9.1  T
   4   -117.1820259 -0.238867E-07  0.638E-04    2.69      17.4  T
   5   -117.1820259 -0.208783E-07  0.157E-04    2.70      70.6  T
     SCC iter.                  ...        0 min,  0.573 sec
     gradient                   ...        0 min,  0.116 sec
 * total energy  :  -115.5250707 Eh     change       -0.9802118E-05 Eh
   gradient norm :     0.0009449 Eh/α   predicted    -0.4460114E-05 ( -54.50%)
   displ. norm   :     0.0879193 α      lambda       -0.6976647E-05
   maximum displ.:     0.0593086 α      in ANC's #1, #2, #7, ...

........................................................................
.............................. CYCLE   30 ..............................
........................................................................

 iter      E             dE          RMSdq      gap      omega  full diag
   1   -117.1820702 -0.117182E+03  0.950E-03    2.70       0.0  T
   2   -117.1820703 -0.722548E-07  0.534E-03    2.70       2.1  T
   3   -117.1820702  0.233907E-07  0.105E-03    2.70      10.6  T
   4   -117.1820703 -0.251526E-07  0.535E-04    2.70      20.8  T
   5   -117.1820703 -0.121971E-07  0.191E-04    2.70      58.2  T
     SCC iter.                  ...        0 min,  0.624 sec
     gradient                   ...        0 min,  0.118 sec
 * total energy  :  -115.5250792 Eh     change       -0.8454898E-05 Eh
   gradient norm :     0.0006711 Eh/α   predicted    -0.3501833E-05 ( -58.58%)
   displ. norm   :     0.0852330 α      lambda       -0.6789706E-05
   maximum displ.:     0.0592098 α      in ANC's #1, #2, #7, ...

........................................................................
.............................. CYCLE   31 ..............................
........................................................................

 iter      E             dE          RMSdq      gap      omega  full diag
   1   -117.1821633 -0.117182E+03  0.973E-03    2.70       0.0  T
   2   -117.1821634 -0.818403E-07  0.532E-03    2.70       2.1  T
   3   -117.1821633  0.358303E-07  0.125E-03    2.70       8.9  T
   4   -117.1821634 -0.408137E-07  0.616E-04    2.70      18.0  T
   5   -117.1821634 -0.149356E-07  0.159E-04    2.70      69.8  T
     SCC iter.                  ...        0 min,  0.561 sec
     gradient                   ...        0 min,  0.114 sec
 * total energy  :  -115.5250880 Eh     change       -0.8849398E-05 Eh
   gradient norm :     0.0004016 Eh/α   predicted    -0.3406299E-05 ( -61.51%)
   displ. norm   :     0.1025356 α      lambda       -0.7914773E-05
   maximum displ.:     0.0706319 α      in ANC's #1, #2, #7, ...

........................................................................
.............................. CYCLE   32 ..............................
........................................................................

 iter      E             dE          RMSdq      gap      omega  full diag
   1   -117.1822160 -0.117182E+03  0.112E-02    2.70       0.0  T
   2   -117.1822161 -0.827781E-07  0.619E-03    2.70       1.8  T
   3   -117.1822160  0.523140E-07  0.139E-03    2.70       8.0  T
   4   -117.1822161 -0.631912E-07  0.665E-04    2.70      16.7  T
   5   -117.1822161 -0.141579E-07  0.160E-04    2.70      69.3  T
     SCC iter.                  ...        0 min,  0.653 sec
     gradient                   ...        0 min,  0.115 sec
 * total energy  :  -115.5250985 Eh     change       -0.1043948E-04 Eh
   gradient norm :     0.0005674 Eh/α   predicted    -0.3977685E-05 ( -61.90%)
   displ. norm   :     0.1290834 α      lambda       -0.8985758E-05
   maximum displ.:     0.0883525 α      in ANC's #1, #2, #7, ...

........................................................................
.............................. CYCLE   33 ..............................
........................................................................

 iter      E             dE          RMSdq      gap      omega  full diag
   1   -117.1822189 -0.117182E+03  0.134E-02    2.70       0.0  T
   2   -117.1822190 -0.898191E-07  0.759E-03    2.70       1.5  T
   3   -117.1822189  0.107694E-06  0.163E-03    2.70       6.8  T
   4   -117.1822190 -0.127774E-06  0.705E-04    2.70      15.8  T
   5   -117.1822190 -0.150777E-07  0.178E-04    2.70      62.3  T
     SCC iter.                  ...        0 min,  0.641 sec
     gradient                   ...        0 min,  0.115 sec
 * total energy  :  -115.5251101 Eh     change       -0.1166205E-04 Eh
   gradient norm :     0.0007412 Eh/α   predicted    -0.4528750E-05 ( -61.17%)
   displ. norm   :     0.1405186 α      lambda       -0.8662902E-05
   maximum displ.:     0.0972598 α      in ANC's #1, #2, #7, ...

........................................................................
.............................. CYCLE   34 ..............................
........................................................................

 iter      E             dE          RMSdq      gap      omega  full diag
   1   -117.1822318 -0.117182E+03  0.137E-02    2.70       0.0  T
   2   -117.1822318 -0.806655E-07  0.787E-03    2.70       1.4  T
   3   -117.1822317  0.140769E-06  0.164E-03    2.70       6.8  T
   4   -117.1822319 -0.166202E-06  0.613E-04    2.70      18.1  T
   5   -117.1822319 -0.101267E-07  0.177E-04    2.70      62.7  T
     SCC iter.                  ...        0 min,  0.624 sec
     gradient                   ...        0 min,  0.119 sec
 * total energy  :  -115.5251215 Eh     change       -0.1134928E-04 Eh
   gradient norm :     0.0007218 Eh/α   predicted    -0.4371046E-05 ( -61.49%)
   displ. norm   :     0.1333132 α      lambda       -0.7903486E-05
   maximum displ.:     0.0934759 α      in ANC's #1, #2, #6, ...

........................................................................
.............................. CYCLE   35 ..............................
........................................................................

 iter      E             dE          RMSdq      gap      omega  full diag
   1   -117.1822103 -0.117182E+03  0.123E-02    2.70       0.0  T
   2   -117.1822104 -0.637381E-07  0.709E-03    2.70       1.6  T
   3   -117.1822103  0.150929E-06  0.161E-03    2.70       6.9  T
   4   -117.1822104 -0.176114E-06  0.529E-04    2.70      21.0  T
   5   -117.1822104 -0.783861E-08  0.156E-04    2.70      71.2  T
     SCC iter.                  ...        0 min,  0.417 sec
     gradient                   ...        0 min,  0.112 sec
 * total energy  :  -115.5251321 Eh     change       -0.1064451E-04 Eh
   gradient norm :     0.0005408 Eh/α   predicted    -0.3986291E-05 ( -62.55%)
   displ. norm   :     0.1357425 α      lambda       -0.8189370E-05
   maximum displ.:     0.0960448 α      in ANC's #1, #2, #6, ...

........................................................................
.............................. CYCLE   36 ..............................
........................................................................

 iter      E             dE          RMSdq      gap      omega  full diag
   1   -117.1822517 -0.117182E+03  0.120E-02    2.70       0.0  T
   2   -117.1822518 -0.800784E-07  0.687E-03    2.70       1.6  T
   3   -117.1822516  0.169105E-06  0.172E-03    2.70       6.5  T
   4   -117.1822518 -0.195666E-06  0.569E-04    2.70      19.5  T
   5   -117.1822518 -0.110179E-07  0.158E-04    2.70      70.3  T
     SCC iter.                  ...        0 min,  0.521 sec
     gradient                   ...        0 min,  0.113 sec
 * total energy  :  -115.5251433 Eh     change       -0.1120318E-04 Eh
   gradient norm :     0.0002900 Eh/α   predicted    -0.4133108E-05 ( -63.11%)
   displ. norm   :     0.1438193 α      lambda       -0.8677391E-05
   maximum displ.:     0.1019666 α      in ANC's #1, #2, #6, ...

........................................................................
.............................. CYCLE   37 ..............................
........................................................................

 iter      E             dE          RMSdq      gap      omega  full diag
   1   -117.1822345 -0.117182E+03  0.126E-02    2.70       0.0  T
   2   -117.1822346 -0.106920E-06  0.699E-03    2.70       1.6  T
   3   -117.1822345  0.171092E-06  0.193E-03    2.70       5.7  T
   4   -117.1822346 -0.196121E-06  0.755E-04    2.70      14.7  T
   5   -117.1822347 -0.212214E-07  0.162E-04    2.70      68.8  T
     SCC iter.                  ...        0 min,  0.522 sec
     gradient                   ...        0 min,  0.116 sec
 * total energy  :  -115.5251550 Eh     change       -0.1167294E-04 Eh
   gradient norm :     0.0002941 Eh/α   predicted    -0.4380079E-05 ( -62.48%)
   displ. norm   :     0.1515354 α      lambda       -0.8458093E-05
   maximum displ.:     0.1076943 α      in ANC's #1, #2, #6, ...

........................................................................
.............................. CYCLE   38 ..............................
........................................................................

 iter      E             dE          RMSdq      gap      omega  full diag
   1   -117.1822602 -0.117182E+03  0.134E-02    2.70       0.0  T
   2   -117.1822603 -0.116665E-06  0.752E-03    2.70       1.5  T
   3   -117.1822601  0.217804E-06  0.209E-03    2.70       5.3  T
   4   -117.1822603 -0.253306E-06  0.762E-04    2.70      14.6  T
   5   -117.1822603 -0.191172E-07  0.169E-04    2.70      65.8  T
     SCC iter.                  ...        0 min,  0.673 sec
     gradient                   ...        0 min,  0.114 sec
 * total energy  :  -115.5251663 Eh     change       -0.1127821E-04 Eh
   gradient norm :     0.0004441 Eh/α   predicted    -0.4276759E-05 ( -62.08%)
   displ. norm   :     0.1451621 α      lambda       -0.7348162E-05
   maximum displ.:     0.1037409 α      in ANC's #1, #2, #6, ...

........................................................................
.............................. CYCLE   39 ..............................
........................................................................

 iter      E             dE          RMSdq      gap      omega  full diag
   1   -117.1822884 -0.117182E+03  0.133E-02    2.70       0.0  T
   2   -117.1822885 -0.119276E-06  0.729E-03    2.70       1.5  T
   3   -117.1822884  0.165622E-06  0.201E-03    2.70       5.5  T
   4   -117.1822886 -0.188117E-06  0.857E-04    2.70      13.0  T
   5   -117.1822886 -0.276942E-07  0.156E-04    2.70      71.1  T
     SCC iter.                  ...        0 min,  0.632 sec
     gradient                   ...        0 min,  0.129 sec
 * total energy  :  -115.5251760 Eh     change       -0.9743435E-05 Eh
   gradient norm :     0.0004983 Eh/α   predicted    -0.3713475E-05 ( -61.89%)
   displ. norm   :     0.1266691 α      lambda       -0.5958290E-05
   maximum displ.:     0.0916233 α      in ANC's #1, #2, #6, ...

........................................................................
.............................. CYCLE   40 ..............................
........................................................................

 iter      E             dE          RMSdq      gap      omega  full diag
   1   -117.1822979 -0.117182E+03  0.120E-02    2.70       0.0  T
   2   -117.1822980 -0.745413E-07  0.678E-03    2.70       1.6  T
   3   -117.1822978  0.154991E-06  0.174E-03    2.70       6.4  T
   4   -117.1822980 -0.180319E-06  0.618E-04    2.70      18.0  T
   5   -117.1822980 -0.119437E-07  0.141E-04    2.70      78.7  T
     SCC iter.                  ...        0 min,  0.567 sec
     gradient                   ...        0 min,  0.114 sec
 * total energy  :  -115.5251841 Eh     change       -0.8047291E-05 Eh
   gradient norm :     0.0004050 Eh/α   predicted    -0.3005406E-05 ( -62.65%)
   displ. norm   :     0.1071434 α      lambda       -0.4928872E-05
   maximum displ.:     0.0784223 α      in ANC's #1, #2, #9, ...

........................................................................
.............................. CYCLE   41 ..............................
........................................................................

 iter      E             dE          RMSdq      gap      omega  full diag
   1   -117.1823516 -0.117182E+03  0.107E-02    2.70       0.0  T
   2   -117.1823516 -0.542346E-07  0.603E-03    2.70       1.8  T
   3   -117.1823515  0.105023E-06  0.146E-03    2.70       7.6  T
   4   -117.1823517 -0.121968E-06  0.540E-04    2.70      20.6  T
   5   -117.1823517 -0.956591E-08  0.112E-04    2.70      99.3  T
     SCC iter.                  ...        0 min,  0.593 sec
     gradient                   ...        0 min,  0.115 sec
 * total energy  :  -115.5251908 Eh     change       -0.6765031E-05 Eh
   gradient norm :     0.0002567 Eh/α   predicted    -0.2480416E-05 ( -63.33%)
   displ. norm   :     0.0992976 α      lambda       -0.4551257E-05
   maximum displ.:     0.0731405 α      in ANC's #1, #2, #9, ...

........................................................................
.............................. CYCLE   42 ..............................
........................................................................

 iter      E             dE          RMSdq      gap      omega  full diag
   1   -117.1823576 -0.117182E+03  0.105E-02    2.70       0.0  T
   2   -117.1823577 -0.435714E-07  0.601E-03    2.70       1.8  T
   3   -117.1823576  0.949450E-07  0.132E-03    2.70       8.4  T
   4   -117.1823577 -0.111978E-06  0.440E-04    2.70      25.3  T
   5   -117.1823577 -0.542248E-08  0.115E-04    2.70      96.5  T
     SCC iter.                  ...        0 min,  0.584 sec
     gradient                   ...        0 min,  0.112 sec
 * total energy  :  -115.5251970 Eh     change       -0.6214550E-05 Eh
   gradient norm :     0.0001693 Eh/α   predicted    -0.2287531E-05 ( -63.19%)
   displ. norm   :     0.0994147 α      lambda       -0.4356964E-05
   maximum displ.:     0.0733569 α      in ANC's #1, #2, #9, ...
 * RMSD in coord.:     0.2247861 α      energy gain  -0.2316502E-03 Eh

generating ANC from exact Hessian ...
Using Lindh-Hessian (1995)
 Shifting diagonal of input Hessian by    9.9115794079962065E-003
 Lowest  eigenvalues of input Hessian
    0.000000    0.000000    0.000000    0.000000    0.000000    0.000000
    0.010000    0.010048    0.010141    0.010348    0.010411    0.010559
    0.010665    0.010729    0.011112    0.011276    0.011447    0.011605
 Highest eigenvalues
    2.017557    2.033480    2.045721    2.119052    2.124400    2.231034


........................................................................
.............................. CYCLE   43 ..............................
........................................................................

 iter      E             dE          RMSdq      gap      omega  full diag
   1   -117.1823754 -0.117182E+03  0.111E-02    2.70       0.0  T
   2   -117.1823754 -0.449519E-07  0.640E-03    2.70       1.7  T
   3   -117.1823753  0.103660E-06  0.134E-03    2.70       8.3  T
   4   -117.1823754 -0.123015E-06  0.437E-04    2.70      25.4  T
   5   -117.1823754 -0.502452E-08  0.125E-04    2.70      88.7  T
     SCC iter.                  ...        0 min,  0.656 sec
     gradient                   ...        0 min,  0.116 sec
 * total energy  :  -115.5252029 Eh     change       -0.5856759E-05 Eh
   gradient norm :     0.0002208 Eh/α   predicted     0.0000000E+00 (-100.00%)
   displ. norm   :     0.0139905 α      lambda       -0.3863822E-07
   maximum displ.:     0.0108030 α      in ANC's #1, #6, #3, ...

........................................................................
.............................. CYCLE   44 ..............................
........................................................................

 iter      E             dE          RMSdq      gap      omega  full diag
   1   -117.1824089 -0.117182E+03  0.177E-03    2.70       0.0  T
   2   -117.1824089 -0.244887E-08  0.102E-03    2.70      10.9  T
   3   -117.1824089  0.507356E-09  0.180E-04    2.70      61.9  T
   4   -117.1824089 -0.757368E-09  0.877E-05    2.70     126.7  T
     SCC iter.                  ...        0 min,  0.493 sec
     gradient                   ...        0 min,  0.115 sec
 * total energy  :  -115.5252043 Eh     change       -0.1373189E-05 Eh
   gradient norm :     0.0001848 Eh/α   predicted    -0.5057208E-06 ( -63.17%)
   displ. norm   :     0.0404749 α      lambda       -0.2618758E-05
   maximum displ.:     0.0264862 α      in ANC's #1, #6, #3, ...

........................................................................
.............................. CYCLE   45 ..............................
........................................................................

 iter      E             dE          RMSdq      gap      omega  full diag
   1   -117.1824510 -0.117182E+03  0.633E-03    2.70       0.0  T
   2   -117.1824511 -0.315994E-07  0.327E-03    2.70       3.4  T
   3   -117.1824511 -0.224752E-08  0.783E-04    2.70      14.2  T
   4   -117.1824511  0.146102E-08  0.411E-04    2.70      27.0  T
     SCC iter.                  ...        0 min,  0.420 sec
     gradient                   ...        0 min,  0.116 sec
 * total energy  :  -115.5252075 Eh     change       -0.3247311E-05 Eh
   gradient norm :     0.0002495 Eh/α   predicted    -0.1311619E-05 ( -59.61%)
   displ. norm   :     0.0804722 α      lambda       -0.4509979E-05
   maximum displ.:     0.0515085 α      in ANC's #1, #6, #3, ...

........................................................................
.............................. CYCLE   46 ..............................
........................................................................

 iter      E             dE          RMSdq      gap      omega  full diag
   1   -117.1823458 -0.117182E+03  0.102E-02    2.70       0.0  T
   2   -117.1823458 -0.541558E-07  0.589E-03    2.70       1.9  T
   3   -117.1823458  0.146976E-07  0.898E-04    2.70      12.4  T
   4   -117.1823458 -0.156627E-07  0.522E-04    2.70      21.3  T
     SCC iter.                  ...        0 min,  0.397 sec
     gradient                   ...        0 min,  0.114 sec
 * total energy  :  -115.5252120 Eh     change       -0.4435824E-05 Eh
   gradient norm :     0.0003233 Eh/α   predicted    -0.2263443E-05 ( -48.97%)
   displ. norm   :     0.0541150 α      lambda       -0.2244050E-05
   maximum displ.:     0.0373484 α      in ANC's #1, #3, #6, ...

........................................................................
.............................. CYCLE   47 ..............................
........................................................................

 iter      E             dE          RMSdq      gap      omega  full diag
   1   -117.1822884 -0.117182E+03  0.847E-03    2.70       0.0  T
   2   -117.1822885 -0.609057E-07  0.444E-03    2.70       2.5  T
   3   -117.1822885  0.103699E-07  0.110E-03    2.70      10.1  T
   4   -117.1822885 -0.521747E-08  0.638E-04    2.70      17.4  T
   5   -117.1822885 -0.203743E-07  0.185E-04    2.70      59.9  T
     SCC iter.                  ...        0 min,  0.502 sec
     gradient                   ...        0 min,  0.123 sec
 * total energy  :  -115.5252146 Eh     change       -0.2651133E-05 Eh
   gradient norm :     0.0002927 Eh/α   predicted    -0.1124902E-05 ( -57.57%)
   displ. norm   :     0.0410602 α      lambda       -0.1894090E-05
   maximum displ.:     0.0294662 α      in ANC's #1, #3, #6, ...

........................................................................
.............................. CYCLE   48 ..............................
........................................................................

 iter      E             dE          RMSdq      gap      omega  full diag
   1   -117.1823453 -0.117182E+03  0.684E-03    2.70       0.0  T
   2   -117.1823453 -0.378567E-07  0.355E-03    2.70       3.1  T
   3   -117.1823453 -0.115043E-08  0.818E-04    2.70      13.6  T
   4   -117.1823453 -0.787992E-09  0.449E-04    2.70      24.7  T
     SCC iter.                  ...        0 min,  0.400 sec
     gradient                   ...        0 min,  0.112 sec
 * total energy  :  -115.5252167 Eh     change       -0.2079607E-05 Eh
   gradient norm :     0.0003002 Eh/α   predicted    -0.9482634E-06 ( -54.40%)
   displ. norm   :     0.0410425 α      lambda       -0.2333449E-05
   maximum displ.:     0.0292282 α      in ANC's #1, #3, #4, ...

........................................................................
.............................. CYCLE   49 ..............................
........................................................................

 iter      E             dE          RMSdq      gap      omega  full diag
   1   -117.1825090 -0.117183E+03  0.591E-03    2.70       0.0  T
   2   -117.1825091 -0.257238E-07  0.331E-03    2.70       3.4  T
   3   -117.1825090  0.167517E-07  0.751E-04    2.70      14.8  T
   4   -117.1825091 -0.183142E-07  0.380E-04    2.70      29.3  T
     SCC iter.                  ...        0 min,  0.400 sec
     gradient                   ...        0 min,  0.116 sec
 * total energy  :  -115.5252197 Eh     change       -0.2990233E-05 Eh
   gradient norm :     0.0002797 Eh/α   predicted    -0.1168114E-05 ( -60.94%)
   displ. norm   :     0.0587593 α      lambda       -0.3018606E-05
   maximum displ.:     0.0409539 α      in ANC's #1, #3, #4, ...

........................................................................
.............................. CYCLE   50 ..............................
........................................................................

 iter      E             dE          RMSdq      gap      omega  full diag
   1   -117.1824964 -0.117182E+03  0.713E-03    2.70       0.0  T
   2   -117.1824965 -0.192598E-07  0.416E-03    2.70       2.7  T
   3   -117.1824964  0.310464E-07  0.724E-04    2.70      15.3  T
   4   -117.1824965 -0.374272E-07  0.293E-04    2.70      37.9  T
     SCC iter.                  ...        0 min,  0.448 sec
     gradient                   ...        0 min,  0.112 sec
 * total energy  :  -115.5252235 Eh     change       -0.3808525E-05 Eh
   gradient norm :     0.0002371 Eh/α   predicted    -0.1512216E-05 ( -60.29%)
   displ. norm   :     0.0645914 α      lambda       -0.2658119E-05
   maximum displ.:     0.0454189 α      in ANC's #1, #3, #4, ...

........................................................................
.............................. CYCLE   51 ..............................
........................................................................

 iter      E             dE          RMSdq      gap      omega  full diag
   1   -117.1824243 -0.117182E+03  0.750E-03    2.70       0.0  T
   2   -117.1824243 -0.254963E-07  0.433E-03    2.70       2.6  T
   3   -117.1824243  0.373283E-07  0.856E-04    2.70      13.0  T
   4   -117.1824243 -0.439242E-07  0.377E-04    2.70      29.5  T
     SCC iter.                  ...        0 min,  0.497 sec
     gradient                   ...        0 min,  0.119 sec
 * total energy  :  -115.5252268 Eh     change       -0.3342479E-05 Eh
   gradient norm :     0.0002487 Eh/α   predicted    -0.1335022E-05 ( -60.06%)
   displ. norm   :     0.0553347 α      lambda       -0.1978345E-05
   maximum displ.:     0.0397727 α      in ANC's #1, #3, #4, ...

........................................................................
.............................. CYCLE   52 ..............................
........................................................................

 iter      E             dE          RMSdq      gap      omega  full diag
   1   -117.1824693 -0.117182E+03  0.642E-03    2.70       0.0  T
   2   -117.1824693 -0.251619E-07  0.357E-03    2.70       3.1  T
   3   -117.1824693  0.238571E-07  0.817E-04    2.70      13.6  T
   4   -117.1824693 -0.254835E-07  0.429E-04    2.70      25.9  T
     SCC iter.                  ...        0 min,  0.473 sec
     gradient                   ...        0 min,  0.123 sec
 * total energy  :  -115.5252295 Eh     change       -0.2686784E-05 Eh
   gradient norm :     0.0002431 Eh/α   predicted    -0.9930953E-06 ( -63.04%)
   displ. norm   :     0.0471209 α      lambda       -0.1779671E-05
   maximum displ.:     0.0342862 α      in ANC's #1, #3, #4, ...

........................................................................
.............................. CYCLE   53 ..............................
........................................................................

 iter      E             dE          RMSdq      gap      omega  full diag
   1   -117.1824413 -0.117182E+03  0.539E-03    2.70       0.0  T
   2   -117.1824413 -0.201163E-07  0.295E-03    2.70       3.8  T
   3   -117.1824413  0.116108E-07  0.685E-04    2.70      16.2  T
   4   -117.1824413 -0.998155E-08  0.402E-04    2.70      27.6  T
     SCC iter.                  ...        0 min,  0.527 sec
     gradient                   ...        0 min,  0.114 sec
 * total energy  :  -115.5252320 Eh     change       -0.2505533E-05 Eh
   gradient norm :     0.0001843 Eh/α   predicted    -0.8920119E-06 ( -64.40%)
   displ. norm   :     0.0504626 α      lambda       -0.1995335E-05
   maximum displ.:     0.0367253 α      in ANC's #1, #3, #4, ...

........................................................................
.............................. CYCLE   54 ..............................
........................................................................

 iter      E             dE          RMSdq      gap      omega  full diag
   1   -117.1824556 -0.117182E+03  0.600E-03    2.70       0.0  T
   2   -117.1824557 -0.261715E-07  0.319E-03    2.70       3.5  T
   3   -117.1824556  0.966713E-08  0.758E-04    2.70      14.6  T
   4   -117.1824557 -0.592600E-08  0.467E-04    2.70      23.8  T
     SCC iter.                  ...        0 min,  0.471 sec
     gradient                   ...        0 min,  0.115 sec
 * total energy  :  -115.5252348 Eh     change       -0.2753432E-05 Eh
   gradient norm :     0.0001316 Eh/α   predicted    -0.9996485E-06 ( -63.69%)
   displ. norm   :     0.0571831 α      lambda       -0.2101936E-05
   maximum displ.:     0.0417908 α      in ANC's #1, #3, #4, ...

........................................................................
.............................. CYCLE   55 ..............................
........................................................................

 iter      E             dE          RMSdq      gap      omega  full diag
   1   -117.1824577 -0.117182E+03  0.684E-03    2.70       0.0  T
   2   -117.1824578 -0.331863E-07  0.362E-03    2.70       3.1  T
   3   -117.1824578  0.114130E-07  0.869E-04    2.70      12.8  T
   4   -117.1824578 -0.528533E-08  0.544E-04    2.70      20.4  T
     SCC iter.                  ...        0 min,  0.379 sec
     gradient                   ...        0 min,  0.112 sec
 * total energy  :  -115.5252376 Eh     change       -0.2821380E-05 Eh
   gradient norm :     0.0001452 Eh/α   predicted    -0.1053003E-05 ( -62.68%)
   displ. norm   :     0.0533964 α      lambda       -0.1755309E-05
   maximum displ.:     0.0396115 α      in ANC's #1, #3, #4, ...

........................................................................
.............................. CYCLE   56 ..............................
........................................................................

 iter      E             dE          RMSdq      gap      omega  full diag
   1   -117.1824504 -0.117182E+03  0.651E-03    2.70       0.0  T
   2   -117.1824505 -0.286970E-07  0.340E-03    2.70       3.3  T
   3   -117.1824504  0.510343E-08  0.795E-04    2.70      14.0  T
   4   -117.1824504  0.185084E-08  0.497E-04    2.70      22.3  T
     SCC iter.                  ...        0 min,  0.419 sec
     gradient                   ...        0 min,  0.113 sec
 * total energy  :  -115.5252400 Eh     change       -0.2386090E-05 Eh
   gradient norm :     0.0001638 Eh/α   predicted    -0.8829516E-06 ( -63.00%)
   displ. norm   :     0.0431805 α      lambda       -0.1352858E-05
   maximum displ.:     0.0328151 α      in ANC's #1, #3, #4, ...

........................................................................
.............................. CYCLE   57 ..............................
........................................................................

 iter      E             dE          RMSdq      gap      omega  full diag
   1   -117.1824859 -0.117182E+03  0.526E-03    2.70       0.0  T
   2   -117.1824859 -0.187178E-07  0.275E-03    2.70       4.0  T
   3   -117.1824859  0.413762E-08  0.659E-04    2.70      16.9  T
   4   -117.1824859 -0.717151E-09  0.410E-04    2.70      27.1  T
     SCC iter.                  ...        0 min,  0.480 sec
     gradient                   ...        0 min,  0.115 sec
 * total energy  :  -115.5252419 Eh     change       -0.1929985E-05 Eh
   gradient norm :     0.0001464 Eh/α   predicted    -0.6804008E-06 ( -64.75%)
   displ. norm   :     0.0334919 α      lambda       -0.1108207E-05
   maximum displ.:     0.0261043 α      in ANC's #1, #3, #4, ...

........................................................................
.............................. CYCLE   58 ..............................
........................................................................

 iter      E             dE          RMSdq      gap      omega  full diag
   1   -117.1824946 -0.117182E+03  0.407E-03    2.70       0.0  T
   2   -117.1824946 -0.111262E-07  0.215E-03    2.70       5.2  T
   3   -117.1824946  0.237682E-08  0.504E-04    2.70      22.0  T
   4   -117.1824946 -0.695465E-09  0.309E-04    2.70      35.9  T
     SCC iter.                  ...        0 min,  0.376 sec
     gradient                   ...        0 min,  0.114 sec
 * total energy  :  -115.5252435 Eh     change       -0.1603864E-05 Eh
   gradient norm :     0.0001150 Eh/α   predicted    -0.5568564E-06 ( -65.28%)
   displ. norm   :     0.0289612 α      lambda       -0.1022692E-05
   maximum displ.:     0.0231606 α      in ANC's #1, #3, #5, ...

........................................................................
.............................. CYCLE   59 ..............................
........................................................................

 iter      E             dE          RMSdq      gap      omega  full diag
   1   -117.1825110 -0.117183E+03  0.349E-03    2.70       0.0  T
   2   -117.1825110 -0.791788E-08  0.186E-03    2.70       6.0  T
   3   -117.1825110  0.209418E-08  0.431E-04    2.70      25.8  T
   4   -117.1825110 -0.179453E-08  0.251E-04    2.70      44.3  T
     SCC iter.                  ...        0 min,  0.361 sec
     gradient                   ...        0 min,  0.112 sec
 * total energy  :  -115.5252450 Eh     change       -0.1444370E-05 Eh
   gradient norm :     0.0000940 Eh/α   predicted    -0.5134087E-06 ( -64.45%)
   displ. norm   :     0.0261670 α      lambda       -0.9110123E-06
   maximum displ.:     0.0215180 α      in ANC's #1, #3, #5, ...

........................................................................
.............................. CYCLE   60 ..............................
........................................................................

 iter      E             dE          RMSdq      gap      omega  full diag
   1   -117.1825166 -0.117183E+03  0.316E-03    2.70       0.0  T
   2   -117.1825166 -0.686359E-08  0.171E-03    2.70       6.5  T
   3   -117.1825166  0.256490E-08  0.393E-04    2.70      28.2  T
   4   -117.1825166 -0.239689E-08  0.230E-04    2.70      48.2  T
     SCC iter.                  ...        0 min,  0.395 sec
     gradient                   ...        0 min,  0.121 sec
 * total energy  :  -115.5252462 Eh     change       -0.1271054E-05 Eh
   gradient norm :     0.0000835 Eh/α   predicted    -0.4605765E-06 ( -63.76%)
   displ. norm   :     0.0220815 α      lambda       -0.7380367E-06
   maximum displ.:     0.0188930 α      in ANC's #1, #3, #5, ...

........................................................................
.............................. CYCLE   61 ..............................
........................................................................

 iter      E             dE          RMSdq      gap      omega  full diag
   1   -117.1825181 -0.117183E+03  0.246E-03    2.70       0.0  T
   2   -117.1825181 -0.341799E-08  0.135E-03    2.70       8.2  T
   3   -117.1825181  0.241469E-08  0.304E-04    2.70      36.6  T
   4   -117.1825181 -0.271223E-08  0.167E-04    2.70      66.6  T
     SCC iter.                  ...        0 min,  0.534 sec
     gradient                   ...        0 min,  0.114 sec
 * total energy  :  -115.5252473 Eh     change       -0.1065298E-05 Eh
   gradient norm :     0.0000754 Eh/α   predicted    -0.3720574E-06 ( -65.07%)
   displ. norm   :     0.0175907 α      lambda       -0.5976117E-06
   maximum displ.:     0.0156178 α      in ANC's #1, #3, #32, ...

........................................................................
.............................. CYCLE   62 ..............................
........................................................................

 iter      E             dE          RMSdq      gap      omega  full diag
   1   -117.1825189 -0.117183E+03  0.177E-03    2.70       0.0  T
   2   -117.1825189 -0.153914E-08  0.998E-04    2.70      11.1  T
   3   -117.1825189  0.209589E-08  0.223E-04    2.70      49.9  T
     SCC iter.                  ...        0 min,  0.315 sec
     gradient                   ...        0 min,  0.114 sec
 * total energy  :  -115.5252482 Eh     change       -0.8764181E-06 Eh
   gradient norm :     0.0000800 Eh/α   predicted    -0.3003719E-06 ( -65.73%)
[...]
       114                         -0.3162432              -8.6054
       115                         -0.2831856              -7.7059
       116                         -0.2459768              -6.6934
       117                         -0.2375016              -6.4627
       ...                                ...                  ...
       216                          1.0922287              29.7211
      -------------------------------------------------------------
                  HL-Gap            0.0993574 Eh            2.7037 eV
             Fermi-level           -0.4272142 Eh          -11.6251 eV

     #   Z          covCN         q      C6AA      α(0)
     1   6 C        3.644     0.027    20.450     6.500
     2   8 O        1.706    -0.250    18.149     5.752
     3   6 C        2.867     0.153    24.683     8.144
     4   6 C        2.917    -0.064    29.595     8.921
     5   6 C        2.923    -0.028    28.690     8.784
     6   6 C        2.956    -0.044    29.086     8.846
     7   6 C        2.974     0.036    27.199     8.555
     8  16 S        2.079    -0.026   142.129    20.065
     9  16 S        1.903    -0.065   143.748    20.179
    10  15 P        4.339     0.594   136.458    20.984
    11   7 N        2.677    -0.185    25.015     7.428
    12   6 C        3.968     0.037    19.890     6.337
    13   6 C        3.763    -0.134    23.121     6.854
    14   6 C        3.754    -0.124    22.935     6.829
    15   6 C        3.943     0.088    19.059     6.204
    16   6 C        3.759    -0.131    23.064     6.847
    17   6 C        3.763    -0.123    22.901     6.821
    18   6 C        3.765    -0.125    22.937     6.826
    19   8 O        1.659    -0.278    18.634     5.827
    20   6 C        3.061     0.116    25.399     8.265
    21   6 C        2.964    -0.002    28.079     8.692
    22   6 C        3.757    -0.108    22.621     6.781
    23   6 C        2.929    -0.040    29.006     8.832
    24   6 C        2.913    -0.041    29.011     8.832
    25   6 C        3.027     0.010    27.768     8.644
    26   6 C        3.014    -0.019    28.466     8.752
    27   6 C        3.968     0.025    20.081     6.367
    28   6 C        3.855    -0.060    21.621     6.613
    29   6 C        3.832    -0.065    21.723     6.631
    30   6 C        3.856    -0.058    21.585     6.608
    31   6 C        3.833    -0.066    21.731     6.632
    32   6 C        3.024     0.011    27.745     8.640
    33   6 C        2.914    -0.038    28.943     8.822
    34   6 C        2.929    -0.038    28.943     8.823
    35   6 C        2.963    -0.001    28.055     8.688
    36   6 C        3.757    -0.111    22.674     6.789
    37   6 C        3.218     0.108    24.969     8.127
    38   6 C        3.023    -0.018    28.439     8.748
    39   8 O        1.657    -0.268    18.454     5.799
    40   6 C        2.958    -0.060    29.493     8.908
    41   1 H        0.924     0.053     2.278     2.360
    42   1 H        0.924     0.048     2.341     2.393
    43   1 H        0.925     0.078     2.004     2.214
    44   1 H        0.926     0.057     2.237     2.339
    45   1 H        0.926     0.055     2.258     2.350
    46   1 H        0.926     0.047     2.356     2.400
    47   1 H        0.925     0.074     2.042     2.235
    48   1 H        0.925     0.062     2.174     2.306
    49   1 H        0.925     0.064     2.152     2.294
    50   1 H        0.925     0.056     2.242     2.341
    51   1 H        0.925     0.047     2.358     2.401
    52   1 H        0.925     0.071     2.078     2.254
    53   1 H        0.925     0.055     2.259     2.350
    54   1 H        0.925     0.063     2.162     2.299
    55   1 H        0.925     0.051     2.311     2.377
    56   1 H        0.925     0.060     2.195     2.317
    57   1 H        0.925     0.069     2.094     2.263
    58   1 H        0.925     0.057     2.233     2.337
    59   1 H        0.925     0.052     2.301     2.372
    60   1 H        0.925     0.051     2.312     2.378
    61   1 H        0.925     0.051     2.302     2.373
    62   1 H        0.925     0.067     2.120     2.277
    63   1 H        0.925     0.052     2.301     2.372
    64   1 H        0.925     0.053     2.288     2.365
    65   1 H        0.925     0.060     2.197     2.318
    66   1 H        0.926     0.060     2.202     2.320
    67   1 H        0.926     0.061     2.190     2.314
    68   1 H        0.925     0.052     2.294     2.369
    69   1 H        0.924     0.040     2.449     2.447
    70   1 H        0.924     0.061     2.188     2.313
    71   1 H        0.925     0.059     2.212     2.326
    72   1 H        0.925     0.051     2.310     2.377
    73   1 H        0.924     0.038     2.474     2.460
    74   1 H        0.925     0.060     2.197     2.318
    75   1 H        0.924     0.062     2.180     2.309
    76   1 H        0.926     0.063     2.166     2.302
    77   1 H        0.926     0.064     2.154     2.295
    78   1 H        0.925     0.067     2.117     2.275
    79   1 H        0.925     0.065     2.136     2.286
    80   1 H        0.924     0.047     2.361     2.403
    81   1 H        0.926     0.065     2.136     2.286

 Mol. C6AA /au·bohr⁶  :      77885.471265
 Mol. C8AA /au·bohr⁸  :    2052043.042034
 Mol. α(0) /au        :        437.379901


Wiberg/Mayer (AO) data.
largest (>0.10) Wiberg bond orders for each atom

 ---------------------------------------------------------------------------
     #   Z sym  total        # sym  WBO       # sym  WBO       # sym  WBO
 ---------------------------------------------------------------------------
     1   6 C    3.934 --    43 H    0.978    42 H    0.976    41 H    0.976
                             2 O    0.973
     2   8 O    2.268 --     3 C    1.098     1 C    0.973
     3   6 C    3.942 --     4 C    1.355    40 C    1.338     2 O    1.098
     4   6 C    3.980 --     5 C    1.445     3 C    1.355    44 H    0.965
     5   6 C    3.990 --     4 C    1.445     6 C    1.436    45 H    0.968
                            40 C    0.104
     6   6 C    3.988 --     5 C    1.436     7 C    1.388    46 H    0.967
     7   6 C    3.955 --    40 C    1.437     6 C    1.388     8 S    0.975
     8  16 S    2.354 --     9 S    1.182     7 C    0.975
     9  16 S    2.411 --     8 S    1.182    10 P    0.965
    10  15 P    5.081 --    39 O    1.272    19 O    1.263    11 N    1.222
                             9 S    0.965
    11   7 N    3.347 --    10 P    1.222    12 C    0.941    15 C    0.909
    12   6 C    3.955 --    14 C    1.007    13 C    1.002    47 H    0.953
                            11 N    0.941
    13   6 C    3.989 --    12 C    1.002    49 H    0.981    48 H    0.977
                            50 H    0.966
    14   6 C    3.984 --    12 C    1.007    53 H    0.979    52 H    0.978
                            51 H    0.969
    15   6 C    3.947 --    18 C    0.999    16 C    0.996    17 C    0.996
                            11 N    0.909
    16   6 C    3.989 --    15 C    0.996    54 H    0.980    55 H    0.978
                            56 H    0.976
    17   6 C    3.986 --    15 C    0.996    59 H    0.980    58 H    0.980
                            57 H    0.975
    18   6 C    3.991 --    15 C    0.999    61 H    0.980    62 H    0.978
                            60 H    0.965
    19   8 O    2.388 --    10 P    1.263    20 C    0.882
    20   6 C    3.877 --    26 C    1.408    21 C    1.349    19 O    0.882
    21   6 C    3.986 --    23 C    1.424    20 C    1.349    22 C    1.027
                            25 C    0.103
    22   6 C    3.994 --    21 C    1.027    65 H    0.982    64 H    0.969
                            63 H    0.962
    23   6 C    3.984 --    21 C    1.424    24 C    1.423    66 H    0.966
                            26 C    0.103
    24   6 C    3.988 --    25 C    1.439    23 C    1.423    67 H    0.966
    25   6 C    3.984 --    24 C    1.439    26 C    1.344    29 C    1.016
                            21 C    0.103
    26   6 C    3.982 --    20 C    1.408    25 C    1.344    27 C    0.990
                            23 C    0.103
    27   6 C    3.988 --    26 C    0.990    38 C    0.989    30 C    0.957
                            28 C    0.956
    28   6 C    3.993 --    29 C    1.003    69 H    0.979    68 H    0.977
                            27 C    0.956
    29   6 C    3.994 --    25 C    1.016    28 C    1.003    71 H    0.966
                            70 H    0.956
    30   6 C    3.993 --    31 C    1.002    72 H    0.977    73 H    0.977
                            27 C    0.957
    31   6 C    3.994 --    32 C    1.016    30 C    1.002    74 H    0.965
                            75 H    0.956
    32   6 C    3.985 --    33 C    1.435    38 C    1.347    31 C    1.016
                            35 C    0.102
    33   6 C    3.988 --    32 C    1.435    34 C    1.427    76 H    0.966
    34   6 C    3.985 --    33 C    1.427    35 C    1.418    77 H    0.966
                            38 C    0.103
    35   6 C    3.985 --    34 C    1.418    37 C    1.351    36 C    1.030
                            32 C    0.102
    36   6 C    3.992 --    35 C    1.030    79 H    0.982    78 H    0.963
                            80 H    0.962
    37   6 C    3.873 --    38 C    1.407    35 C    1.351    39 O    0.875
    38   6 C    3.982 --    37 C    1.407    32 C    1.347    27 C    0.989
                            34 C    0.103
    39   8 O    2.387 --    10 P    1.272    37 C    0.875
    40   6 C    3.985 --     7 C    1.437     3 C    1.338    81 H    0.963
                             5 C    0.104
    41   1 H    0.997 --     1 C    0.976
    42   1 H    0.998 --     1 C    0.976
    43   1 H    0.993 --     1 C    0.978
    44   1 H    0.996 --     4 C    0.965
    45   1 H    0.996 --     5 C    0.968
    46   1 H    0.998 --     6 C    0.967
    47   1 H    0.993 --    12 C    0.953
    48   1 H    0.996 --    13 C    0.977
    49   1 H    0.995 --    13 C    0.981
    50   1 H    0.997 --    13 C    0.966
    51   1 H    0.998 --    14 C    0.969
    52   1 H    0.994 --    14 C    0.978
    53   1 H    0.997 --    14 C    0.979
    54   1 H    0.995 --    16 C    0.980
    55   1 H    0.997 --    16 C    0.978
    56   1 H    0.996 --    16 C    0.976
    57   1 H    0.994 --    17 C    0.975
    58   1 H    0.997 --    17 C    0.980
    59   1 H    0.997 --    17 C    0.980
    60   1 H    0.997 --    18 C    0.965
    61   1 H    0.997 --    18 C    0.980
    62   1 H    0.995 --    18 C    0.978
    63   1 H    0.997 --    22 C    0.962
    64   1 H    0.997 --    22 C    0.969
    65   1 H    0.996 --    22 C    0.982
    66   1 H    0.995 --    23 C    0.966
    67   1 H    0.995 --    24 C    0.966
    68   1 H    0.997 --    28 C    0.977
    69   1 H    0.998 --    28 C    0.979
    70   1 H    0.996 --    29 C    0.956
    71   1 H    0.995 --    29 C    0.966
    72   1 H    0.997 --    30 C    0.977
    73   1 H    0.999 --    30 C    0.977
    74   1 H    0.995 --    31 C    0.965
    75   1 H    0.996 --    31 C    0.956
    76   1 H    0.995 --    33 C    0.966
    77   1 H    0.995 --    34 C    0.966
    78   1 H    0.995 --    36 C    0.963
    79   1 H    0.995 --    36 C    0.982
    80   1 H    0.997 --    36 C    0.962
    81   1 H    0.996 --    40 C    0.963
 ---------------------------------------------------------------------------

Topologies differ in total number of bonds
Writing topology from bond orders to xtbtopo.mol

molecular dipole:
                 x           y           z       tot (Debye)
 q only:        0.147      -0.761      -0.091
   full:        0.199      -0.789      -0.430       2.339
molecular quadrupole (traceless):
                xx          xy          yy          xz          yz          zz
 q only:       12.641      -8.023      -4.998     -12.747      -2.184      -7.643
  q+dip:       12.663      -7.485      -7.200     -14.829      -3.060      -5.463
   full:       12.873      -5.570      -4.436     -16.205      -4.349      -8.437

           -------------------------------------------------
          |                Geometry Summary                 |
           -------------------------------------------------

      molecular mass/u    :      594.7881102
   center of mass at/Å    :        0.0643251       0.3688420       0.2011660
  moments of inertia/u·Å² :        0.4601898E+04   0.6356381E+04   0.6717602E+04
rotational constants/cm⁻¹ :        0.3663191E-02   0.2652080E-02   0.2509472E-02

 * 74 selected distances

     #   Z          #   Z                                           value/Å
     1   6 C        2   8 O                                       1.4120717
     2   8 O        3   6 C                                       1.3483414
     3   6 C        4   6 C                                       1.3947110
     4   6 C        5   6 C                                       1.3846299
     5   6 C        6   6 C                                       1.3829955
     6   6 C        7   6 C                                       1.3864278
     8  16 S        9  16 S                                       2.0335694
     9  16 S       10  15 P                                       2.1232713 (max)
    10  15 P       11   7 N                                       1.6445556
    11   7 N       12   6 C                                       1.4799121
    12   6 C       13   6 C                                       1.5327203
    12   6 C       14   6 C                                       1.5258363
    15   6 C       16   6 C                                       1.5307438
    15   6 C       17   6 C                                       1.5321280
    15   6 C       18   6 C                                       1.5302901
    10  15 P       19   8 O                                       1.5862435
    20   6 C       21   6 C                                       1.3977223
    21   6 C       23   6 C                                       1.3874056
    23   6 C       24   6 C                                       1.3859936
    24   6 C       25   6 C                                       1.3776122
    20   6 C       26   6 C                                       1.3806001
    25   6 C       26   6 C                                       1.3997600
    28   6 C       29   6 C                                       1.5321128
    30   6 C       31   6 C                                       1.5351075
    32   6 C       33   6 C                                       1.3786744
    33   6 C       34   6 C                                       1.3868029
    34   6 C       35   6 C                                       1.3888057
    35   6 C       37   6 C                                       1.3969961
    32   6 C       38   6 C                                       1.3972446
    37   6 C       38   6 C                                       1.3775725
    10  15 P       39   8 O                                       1.5824095
     3   6 C       40   6 C                                       1.3973128
     7   6 C       40   6 C                                       1.3790247
     1   6 C       41   1 H                                       1.0932922
     1   6 C       42   1 H                                       1.0939587
     1   6 C       43   1 H                                       1.0881455
     4   6 C       44   1 H                                       1.0777243 (min)
     5   6 C       45   1 H                                       1.0793008
     6   6 C       46   1 H                                       1.0779714
    12   6 C       47   1 H                                       1.0888102
    13   6 C       48   1 H                                       1.0855449
    13   6 C       49   1 H                                       1.0874763
    13   6 C       50   1 H                                       1.0854578
    14   6 C       51   1 H                                       1.0896963
    14   6 C       52   1 H                                       1.0867874
    14   6 C       53   1 H                                       1.0863667
    16   6 C       54   1 H                                       1.0868631
    16   6 C       55   1 H                                       1.0859306
    16   6 C       56   1 H                                       1.0839316
    17   6 C       57   1 H                                       1.0869393
    17   6 C       58   1 H                                       1.0862398
    17   6 C       59   1 H                                       1.0872522
    18   6 C       60   1 H                                       1.0853806
    18   6 C       61   1 H                                       1.0871422
    18   6 C       62   1 H                                       1.0867598
    22   6 C       63   1 H                                       1.0897459
    22   6 C       64   1 H                                       1.0898018
    22   6 C       65   1 H                                       1.0862245
    23   6 C       66   1 H                                       1.0789703
    24   6 C       67   1 H                                       1.0784842
    28   6 C       68   1 H                                       1.0866054
    28   6 C       69   1 H                                       1.0919315
    29   6 C       70   1 H                                       1.0920267
    29   6 C       71   1 H                                       1.0894153
    30   6 C       72   1 H                                       1.0869229
    30   6 C       73   1 H                                       1.0916670
    31   6 C       74   1 H                                       1.0894207
    31   6 C       75   1 H                                       1.0917559
    33   6 C       76   1 H                                       1.0784135
    34   6 C       77   1 H                                       1.0786023
    36   6 C       78   1 H                                       1.0899335
    36   6 C       79   1 H                                       1.0857115
    36   6 C       80   1 H                                       1.0907373
    40   6 C       81   1 H                                       1.0787696

 * 8 distinct bonds (by element types)

   Z      Z             #   av. dist./Å        max./Å        min./Å
   1 H    6 C          41     1.0863930     1.0939587     1.0777243
   6 C    6 C          25     1.4279692     1.5351075     1.3775725
   6 C    7 N           1     1.4799121     1.4799121     1.4799121
   6 C    8 O           2     1.3802065     1.4120717     1.3483414
   7 N   15 P           1     1.6445556     1.6445556     1.6445556
   8 O   15 P           2     1.5843265     1.5862435     1.5824095
  15 P   16 S           1     2.1232713     2.1232713     2.1232713
  16 S   16 S           1     2.0335694     2.0335694     2.0335694


optimized geometry written to: xtbopt.xyz


           -------------------------------------------------
          | TOTAL ENERGY             -115.525267604965 Eh   |
          | GRADIENT NORM               0.000046195774 Eh/α |
          | HOMO-LUMO GAP               2.703653273431 eV   |
           -------------------------------------------------

------------------------------------------------------------------------
 * finished run on 2024/12/16 at 21:20:29.316     
------------------------------------------------------------------------
 total:
 * wall-time:     0 d,  0 h,  1 min, 29.690 sec
 *  cpu-time:     0 d,  0 h, 11 min, 48.900 sec
 * ratio c/w:     7.904 speedup
 SCF:
 * wall-time:     0 d,  0 h,  0 min,  2.180 sec
 *  cpu-time:     0 d,  0 h,  0 min, 17.339 sec
 * ratio c/w:     7.956 speedup
 ANC optimizer:
 * wall-time:     0 d,  0 h,  1 min, 27.352 sec
 *  cpu-time:     0 d,  0 h, 11 min, 30.353 sec
 * ratio c/w:     7.903 speedup

