81
 energy: -115.497759636138 gnorm: 0.114255844280 xtb: 6.7.1 (edcfbbe)
C            7.08953200000000        2.03183000000000       -1.86769000000000
O            6.17562300000000        1.92492600000000       -0.78281700000000
C            4.85041000000000        2.11001100000000       -1.06761800000000
C            4.30299900000000        2.30478900000000       -2.33624700000000
C            2.92580200000000        2.48774000000000       -2.48302200000000
C            2.09127800000000        2.47431700000000       -1.36419400000000
C            2.62663400000000        2.26451200000000       -0.09184100000000
S            1.55982900000000        2.25282800000000        1.33561400000000
S            1.65393400000000        0.28762400000000        1.93927900000000
P            0.11122300000000       -0.60314400000000        0.78194900000000
N            0.46235800000000       -2.18251700000000        0.35511500000000
C            1.85489100000000       -2.60323000000000        0.04195200000000
C            2.72965900000000       -1.54831500000000       -0.65656300000000
C            2.62884300000000       -3.14250800000000        1.25417000000000
C           -0.50647600000000       -3.30934300000000        0.58819900000000
C           -0.72124300000000       -3.53988400000000        2.09879500000000
C           -0.10245900000000       -4.68187600000000       -0.02625800000000
C           -1.87575400000000       -3.01210700000000       -0.06933400000000
O           -0.14483800000000        0.27031700000000       -0.56693100000000
C           -1.25864100000000        0.14818100000000       -1.34254000000000
C           -1.17848900000000       -0.52266400000000       -2.57946600000000
C            0.11761200000000       -1.06693200000000       -3.10429200000000
C           -2.34298900000000       -0.71768100000000       -3.35056300000000
C           -3.57080700000000       -0.22419900000000       -2.92788000000000
C           -3.61197700000000        0.49317100000000       -1.74614900000000
C           -2.45992600000000        0.72862500000000       -0.96686300000000
C           -2.80586800000000        1.68520000000000        0.14379700000000
C           -4.33484800000000        1.41169300000000        0.26458100000000
C           -4.82620000000000        1.13915200000000       -1.15660700000000
C           -2.53578600000000        3.16749300000000       -0.22328900000000
C           -2.68472300000000        3.95326700000000        1.09151200000000
C           -2.23627200000000        2.92647700000000        2.08747100000000
C           -1.92880000000000        3.13051300000000        3.42124600000000
C           -1.54721400000000        2.02883400000000        4.18777600000000
C           -1.40394500000000        0.75446500000000        3.60442600000000
C           -0.99203600000000       -0.41103300000000        4.45832500000000
C           -1.65538900000000        0.59850500000000        2.23090700000000
C           -2.17609500000000        1.64954500000000        1.50555600000000
O           -1.30090000000000       -0.55389200000000        1.59693800000000
C            4.00779200000000        2.09144800000000        0.04794800000000
H            7.03479300000000        3.02026800000000       -2.33569900000000
H            6.92382900000000        1.23580500000000       -2.60149400000000
H            8.10088600000000        1.90920100000000       -1.46356800000000
H            4.91850400000000        2.32047800000000       -3.22909700000000
H            2.49856900000000        2.63974600000000       -3.47130500000000
H            1.02128800000000        2.61427500000000       -1.49802700000000
H            1.81143400000000       -3.40083200000000       -0.70573700000000
H            3.27164100000000       -0.91472400000000        0.04730300000000
H            3.49272500000000       -2.04762400000000       -1.26733800000000
H            2.16059500000000       -0.90913700000000       -1.32832500000000
H            2.68991900000000       -2.41236300000000        2.06465200000000
H            3.65538200000000       -3.39857300000000        0.96662800000000
H            2.18661700000000       -4.05197000000000        1.66397000000000
H           -1.34396700000000       -4.42705300000000        2.27494700000000
H            0.22034100000000       -3.69738900000000        2.63193700000000
H           -1.23758600000000       -2.70889100000000        2.58220500000000
H           -0.89397300000000       -5.42702200000000        0.12377200000000
H            0.79541900000000       -5.10731600000000        0.42760300000000
H            0.05098200000000       -4.60708900000000       -1.10844200000000
H           -2.37381300000000       -2.12568000000000        0.32201300000000
H           -1.77248000000000       -2.89757400000000       -1.15169800000000
H           -2.57604500000000       -3.84090300000000        0.09590500000000
H            0.40237500000000       -1.96773700000000       -2.55557700000000
H            0.90330900000000       -0.30988500000000       -3.03362200000000
H            0.03931100000000       -1.33386100000000       -4.16388200000000
H           -2.29089900000000       -1.26445300000000       -4.28964900000000
H           -4.46567600000000       -0.38091900000000       -3.52160300000000
H           -4.90105500000000        2.22506600000000        0.73129600000000
H           -4.51019100000000        0.51724000000000        0.88034300000000
H           -5.06001900000000        2.06627200000000       -1.69015600000000
H           -5.69722200000000        0.47695500000000       -1.15719500000000
H           -3.19515500000000        3.56080000000000       -1.00324100000000
H           -1.50657400000000        3.27826700000000       -0.59352300000000
H           -2.04813700000000        4.84289800000000        1.09598600000000
H           -3.72561500000000        4.23720600000000        1.27793900000000
H           -2.00306900000000        4.11528600000000        3.87086200000000
H           -1.33333900000000        2.17215000000000        5.24525000000000
H           -1.78806700000000       -1.16462900000000        4.46845400000000
H           -0.81394400000000       -0.10392400000000        5.49487800000000
H           -0.06991600000000       -0.86824900000000        4.08920600000000
H            4.44208000000000        1.93974500000000        1.03376100000000
81
 energy: -115.514284180430 gnorm: 0.054684755106 xtb: 6.7.1 (edcfbbe)
C            7.08642719100826        2.03103202689104       -1.86875632494508
O            6.16711353345185        1.92734757899234       -0.79556227415861
C            4.84800011049768        2.10810387090511       -1.06584723880430
C            4.29791607956807        2.30337145654380       -2.33156230801178
C            2.92854819774540        2.48305634473301       -2.47216894499221
C            2.09274493874487        2.46543608076009       -1.36712884342701
C            2.63711140732580        2.26241175219876       -0.10533794134907
S            1.56779442015691        2.28671906802086        1.32222891773192
S            1.60266668306884        0.31640049316850        1.86309253397580
P            0.09773892182718       -0.66353395507483        0.76531614327733
N            0.44818796938900       -2.23175326486284        0.34376996015533
C            1.85384162620162       -2.61185292540563        0.04359006429969
C            2.71132380758487       -1.53461488919445       -0.64214830428269
C            2.62084439106144       -3.13853542557739        1.25954529703232
C           -0.53401148841308       -3.33637952478737        0.59839453465761
C           -0.72824852185725       -3.54367558783506        2.10553724174921
C           -0.08540815568606       -4.67189281748816       -0.02987931675231
C           -1.87684900437112       -2.99957814644012       -0.07082928497987
O           -0.12679281288614        0.25136557739992       -0.55261842604961
C           -1.25903286319184        0.15234120349427       -1.35247016148692
C           -1.18033598046425       -0.53120409077640       -2.57862872613699
C            0.11940552127469       -1.06806143158562       -3.09795958624401
C           -2.33208064403242       -0.70841613471881       -3.34440206682002
C           -3.55713074517837       -0.21867881708631       -2.92545179960576
C           -3.60479711382148        0.50526598560352       -1.75422047268036
C           -2.46195639271310        0.73252568886670       -0.97378604499822
C           -2.80788888608065        1.68774790756656        0.14454854727838
C           -4.33531474988556        1.42574872170663        0.28260103242715
C           -4.81271005807983        1.14068462944100       -1.14299895323551
C           -2.54447953562856        3.16624905091817       -0.24068422233023
C           -2.68219216413424        3.93615574766936        1.08269635081696
C           -2.24713647635197        2.91795559994010        2.09222639203057
C           -1.92973196900785        3.11453887834928        3.41950352727838
C           -1.54870617138156        2.01686036944742        4.17898917042255
C           -1.38198002454347        0.75708435923435        3.60352971251903
C           -0.97905383751532       -0.41092947107455        4.45206228526698
C           -1.63092245996689        0.59706439416456        2.23081091832616
C           -2.16459483480010        1.65012941345005        1.50630554543658
O           -1.29371823365174       -0.59360871898042        1.59069476734863
C            4.00500913524705        2.08846626815466        0.04747677477388
H            7.02871273928595        3.01474037194396       -2.34187830051535
H            6.92027721458362        1.24156538041439       -2.60690869975630
H            8.08325780481401        1.90648168035280       -1.44138202366706
H            4.91459344754957        2.32223330189703       -3.21803657124915
H            2.50688924812061        2.64015823152732       -3.45518365888311
H            1.02849438963420        2.61392482241186       -1.49118692036637
H            1.77855299341914       -3.41903368249951       -0.68815584639530
H            3.24646162305654       -0.90528374382322        0.06613549119943
H            3.46894947267214       -2.03848779174817       -1.24688224434971
H            2.13718925869508       -0.90072674971762       -1.31089938617979
H            2.67384035185953       -2.39442223487778        2.05418417542028
H            3.64014464868677       -3.38407565596239        0.95926464444584
H            2.17845270887013       -4.04494628441129        1.66603600997387
H           -1.34396525129514       -4.42716731764463        2.27229347127512
H            0.22023652983838       -3.69455566682311        2.61841152968289
H           -1.23491206767233       -2.69860651064340        2.56521616491546
H           -0.88702058315150       -5.39293500782227        0.13027469347488
H            0.80776451272228       -5.09081844335373        0.42674817205438
H            0.05835554381567       -4.59237599062274       -1.10698275764849
H           -2.34756648598428       -2.10469283601033        0.32778248285713
H           -1.76047524551627       -2.88317703181016       -1.14789584427965
H           -2.56592473752117       -3.82718667918979        0.09954981315696
H            0.41537134635702       -1.96162209999472       -2.54962519653394
H            0.90499284743330       -0.31644477951559       -3.01717963200244
H            0.02668679172762       -1.33449707977236       -4.15084547811705
H           -2.27160496491082       -1.25111496298713       -4.27772239114616
H           -4.45061739905548       -0.38574603508824       -3.51002869386693
H           -4.87894175065511        2.24539393512148        0.75161215001112
H           -4.49062205410129        0.53078691472666        0.89426065734398
H           -5.06149546790093        2.05975667909236       -1.67804836371467
H           -5.68396132638731        0.48526935525581       -1.16289598040544
H           -3.20985958518429        3.54132589061817       -1.01766775429296
H           -1.51584075833730        3.26404306216789       -0.60301240477398
H           -2.05762865511516        4.82982469354849        1.10212817726620
H           -3.71554336184668        4.23584644853064        1.26815051270346
H           -1.99049989634495        4.09764461645531        3.86426544391927
H           -1.34112355003696        2.15187592966726        5.23150276148971
H           -1.77256720115843       -1.16079729023501        4.45714955622866
H           -0.81107867772659       -0.09712636121534        5.48119149197070
H           -0.06478795278945       -0.87751860302608        4.08306214075252
H            4.43721368903910        1.94113925833109        1.02784413248803
81
 energy: -115.518873636203 gnorm: 0.025936397440 xtb: 6.7.1 (edcfbbe)
C            7.07884226405467        2.02997356869486       -1.86546453652054
O            6.15398552946425        1.92960436638171       -0.80177514657757
C            4.84160323699803        2.10737618722112       -1.06238017739435
C            4.29365577834499        2.30359971448838       -2.32924761497245
C            2.92956884772333        2.48142154878854       -2.47364206159606
C            2.08727107794497        2.46554971622381       -1.38071271118902
C            2.63484208631579        2.26677045592733       -0.12471596968146
S            1.52786138288173        2.23462822540619        1.27910138920597
S            1.59423925214591        0.28664575178425        1.86580146996133
P            0.08986130944843       -0.68537250506506        0.75050113770528
N            0.43940618942791       -2.24386222561296        0.33633376322273
C            1.85084039897223       -2.60948928832515        0.04856997931008
C            2.68595959240586       -1.51476528212510       -0.62533426297407
C            2.61172390119011       -3.12269163557585        1.26941390959823
C           -0.54458144920337       -3.34441010392375        0.60054182172304
C           -0.73755054036771       -3.54950919889589        2.10228707334978
C           -0.09203056176214       -4.66767806628838       -0.02662655473744
C           -1.87370647556723       -2.99134610751984       -0.07072216148034
O           -0.11287422202955        0.25245472392802       -0.54179223619204
C           -1.25841517958319        0.15840641778753       -1.36172425575403
C           -1.17519819252803       -0.53417954705943       -2.57787432038016
C            0.12714141441070       -1.07076146709626       -3.08808883844007
C           -2.31981332620737       -0.70021349651739       -3.33980333604964
C           -3.54556271214340       -0.21465256640573       -2.92235232281208
C           -3.59935767247698        0.51376742825310       -1.75684966809172
C           -2.45925836502840        0.73464800685532       -0.97926198519997
C           -2.80059728994397        1.68620349219431        0.14245697737862
C           -4.32496678674411        1.42946226690500        0.29521191557692
C           -4.80341882863152        1.14263344469874       -1.13017561400634
C           -2.54537961360162        3.16183121859429       -0.25139393872840
C           -2.68069432890954        3.92441711025756        1.07398394249923
C           -2.24474930808585        2.91020840763611        2.08737393822489
C           -1.92230900297317        3.09933978994042        3.41213476818307
C           -1.54112781691452        2.00177445012340        4.16568081146919
C           -1.35931400197192        0.75143915721430        3.59484338620166
C           -0.95557708453940       -0.41675107028997        4.43885841999845
C           -1.61068193561683        0.59520855831594        2.22453655312252
C           -2.14807971347659        1.64651964802530        1.50068114028927
O           -1.28249410030606       -0.62283391788594        1.57805141443872
C            3.99293684218216        2.08965850097124        0.04790207202227
H            7.02424531675808        3.01013909602007       -2.34537170116612
H            6.91731516143025        1.24496673455518       -2.60890461597662
H            8.06225048031528        1.90334218850206       -1.41606482212285
H            4.91746487938221        2.32698893635910       -3.20706524968018
H            2.51662529378612        2.63996773006515       -3.45641263126396
H            1.02578256903467        2.60873257186235       -1.49757371785947
H            1.76471691392283       -3.42209323444515       -0.67444507213058
H            3.20536307010121       -0.89227595197864        0.09703014474569
H            3.44445178128332       -2.01048698568159       -1.22911562854244
H            2.10009716506310       -0.88261172210870       -1.28256335195095
H            2.65188225814995       -2.36362649417023        2.04829409559467
H            3.62802703454962       -3.36002205191857        0.96598523780095
H            2.17072233037864       -4.02586671759871        1.67811177262795
H           -1.34902781848882       -4.43002398147035        2.27139906360797
H            0.21493309541149       -3.69366101850026        2.60253891918548
H           -1.23768604518961       -2.69610533757205        2.54559459685443
H           -0.88944834713479       -5.38791961393570        0.13145331778988
H            0.80391945425704       -5.07241763925442        0.42929747936737
H            0.05272941648258       -4.57615350589463       -1.09882051573391
H           -2.31731013184564       -2.08755086832311        0.33292163902302
H           -1.74298523655599       -2.86688488388603       -1.14268262330815
H           -2.57027623368351       -3.80818073204594        0.09530144823258
H            0.43108592467876       -1.95788918189447       -2.53575730493130
H            0.91031439871532       -0.32040039056664       -3.00019806112642
H            0.02636251656617       -1.33982229000724       -4.13571711966615
H           -2.25091092648059       -1.23889314221160       -4.27091854271814
H           -4.43709035432717       -0.38778786660839       -3.50293064623396
H           -4.84590885184625        2.25943459569222        0.76283556802767
H           -4.47171247130356        0.54005100855339        0.91105549895352
H           -5.06409802490270        2.06039449371085       -1.66106814948250
H           -5.67460565943930        0.49024665375251       -1.16122061579524
H           -3.22410299577126        3.51680632251116       -1.02174188875009
H           -1.52174314727590        3.25516956976056       -0.61891841235904
H           -2.06358070379743        4.82118830384560        1.10485560269857
H           -3.71116395303848        4.23291812141003        1.25787155518149
H           -1.98502174624363        4.07846148292632        3.85879479100408
H           -1.34688570253925        2.12547889047132        5.21852157457525
H           -1.74902264825882       -1.16331417514674        4.44069953474565
H           -0.79098930967088       -0.09787020266013        5.46287169555361
H           -0.04697420773797       -0.88846030834243        4.06676574481641
H            4.42025585996556        1.94100491819419        1.02608721970806
81
 energy: -115.520544659799 gnorm: 0.013734975646 xtb: 6.7.1 (edcfbbe)
C            7.07062705953084        2.02759337588698       -1.85735729953315
O            6.14070269424119        1.92888009502242       -0.79900220631289
C            4.83163689635591        2.10518291600030       -1.05837306243214
C            4.28808432959712        2.30386251458399       -2.32790893774832
C            2.92514515391150        2.48134638942272       -2.48047665849450
C            2.07509021067565        2.45615429202850       -1.39263382176096
C            2.62018459994975        2.24896331358444       -0.13580577237321
S            1.50151345475848        2.26429267723691        1.26502603440536
S            1.58193190424497        0.31318476589078        1.83999879256161
P            0.08191604995151       -0.69505762158861        0.74194808747135
N            0.42797752162247       -2.24892826247077        0.33470763184346
C            1.84147404406812       -2.61006130010138        0.05271307393270
C            2.66031669660925       -1.49938645191580       -0.60937914625045
C            2.60015306655259       -3.10356093046367        1.28225045644952
C           -0.55480269768077       -3.35017767097461        0.59734750908151
C           -0.74858250797355       -3.55322276574248        2.09924698263899
C           -0.10171647268767       -4.67145412643448       -0.02870540846586
C           -1.87835827522297       -2.98588757511508       -0.07626409905615
O           -0.10492802280035        0.25200759544921       -0.53373568947732
C           -1.25517287159644        0.15662945289386       -1.36408854782433
C           -1.16532034278175       -0.53643341865905       -2.57646703111924
C            0.13807724053519       -1.07571628705387       -3.07965642194895
C           -2.31022616777510       -0.69602236029811       -3.33977783802265
C           -3.53755111670524       -0.21113389562683       -2.92224173988530
C           -3.59444807240803        0.51641020789223       -1.75572448524603
C           -2.45159220588788        0.73292664605017       -0.98057960350124
C           -2.78718160218862        1.68157155610578        0.14019281897546
C           -4.30975049773806        1.42678953747648        0.30231572489767
C           -4.79682993568258        1.14196528668486       -1.12026362871935
C           -2.54042198973498        3.15670507460408       -0.25608914813963
C           -2.67346602618457        3.91855081453142        1.06867332688206
C           -2.23146137265670        2.90444697218164        2.08028221041041
C           -1.91223000779337        3.08867410489570        3.40681435834980
C           -1.52676219397341        1.98947193567681        4.15692396855631
C           -1.33789515809853        0.74120591968487        3.58467916698106
C           -0.92514907130061       -0.42713293043004        4.42355133731795
C           -1.59667763410207        0.59214634080036        2.21736401551010
C           -2.13046658828616        1.64058994452048        1.49357669981183
O           -1.27611546971322       -0.63980906209514        1.56921493138743
C            3.97626033196803        2.07892377258908        0.04886116382304
H            7.02155102138702        3.00671964772725       -2.34137506506786
H            6.91507004827953        1.24323386407981       -2.60364826864375
H            8.04762810826634        1.89991288213376       -1.39686710928968
H            4.91978332243637        2.32863668885316       -3.19978846635528
H            2.52024789786471        2.64237522116006       -3.46677775138843
H            1.01471125506857        2.60339049261394       -1.50687875264459
H            1.76869052564606       -3.42479223146921       -0.66842251345469
H            3.16650641559674       -0.88052552602353        0.12499277741190
H            3.42651661287727       -1.97148877507601       -1.22092585137409
H            2.06170453842551       -0.86487173801613       -1.25220763896456
H            2.62541427642941       -2.33340588720683        2.05105309968749
H            3.62023718699696       -3.33222718374145        0.98669788911418
H            2.16530320150055       -4.00581928760102        1.69828920374928
H           -1.35900568547657       -4.43328503776318        2.27271684818085
H            0.20489306935177       -3.69514683510091        2.59724889930523
H           -1.24800422466137       -2.69917488987668        2.53939436859730
H           -0.89341931245541       -5.39804362482071        0.12597761930023
H            0.79759194840464       -5.06797375232290        0.42830151457849
H            0.04588313867120       -4.57348707132054       -1.10012963949753
H           -2.30838637579646       -2.07697141581870        0.32826291507309
H           -1.73725928190274       -2.85569309411886       -1.14613514420019
H           -2.58924398052523       -3.79116065351597        0.08212437396047
H            0.44247532132653       -1.95902541116205       -2.52074441371313
H            0.91887727192515       -0.32325496009543       -2.99072778330199
H            0.03917813191026       -1.35032768674569       -4.12519852997443
H           -2.23794362751293       -1.23232488093290       -4.27220155304764
H           -4.42791341301373       -0.38592551879555       -3.50352880294819
H           -4.81865006762851        2.26445183880791        0.76849643203900
H           -4.45724651974176        0.54347555333031        0.92537286642696
H           -5.06399568567351        2.06269161681951       -1.64434384355388
H           -5.66704739848119        0.48821829476238       -1.15037197618135
H           -3.23190657327759        3.50041284311245       -1.02005447630984
H           -1.52247748331437        3.25502704402104       -0.63537226948327
H           -2.05749751595750        4.81619700808325        1.10183058006394
H           -3.70442489274419        4.22769774859769        1.25261537879051
H           -1.98167120784680        4.06489464049272        3.85819240064883
H           -1.33901472064273        2.10639707394627        5.21191461956947
H           -1.71834029926254       -1.17399102808713        4.42666789749865
H           -0.75480765730711       -0.10820763095806        5.44620554418290
H           -0.01883135736822       -0.89736899120889        4.04450077152801
H            4.40084003462451        1.93626881051327        1.02881010471123
81
 energy: -115.521670676778 gnorm: 0.010079455684 xtb: 6.7.1 (edcfbbe)
C            7.06055826324163        2.02372319570690       -1.84338416952631
O            6.12270897260074        1.92637263380319       -0.79159857784570
C            4.81576121766158        2.10120351986318       -1.05777579312717
C            4.28065076569824        2.30362046320300       -2.33115822183166
C            2.91844746128411        2.48068223663848       -2.49700829858369
C            2.06000191527679        2.45398525446763       -1.41393289707531
C            2.59848771710054        2.24869768024080       -0.15262288873216
S            1.46519614864843        2.25360637715743        1.24093087223870
S            1.55002914132131        0.31906445343078        1.87236994118676
P            0.07656474701363       -0.69328351249946        0.73730734220989
N            0.41642599959523       -2.24694185979287        0.33706068750214
C            1.83075318753696       -2.60535629521612        0.05980366542958
C            2.63735677613674       -1.48189989149710       -0.59388916011512
C            2.58439833300202       -3.08016562841479        1.30001402753126
C           -0.56714848419193       -3.34917009762467        0.59377019681161
C           -0.76446344785361       -3.55558685056153        2.09620577447924
C           -0.10710089888213       -4.66879298587398       -0.03377417695668
C           -1.88654983686078       -2.97965680872185       -0.08739822116708
O           -0.09799553080569        0.25600865619912       -0.52705821683784
C           -1.24871305773276        0.15444225237456       -1.36516332488408
C           -1.15228026746145       -0.53843231298425       -2.57541099702583
C            0.15130812610782       -1.08188159885376       -3.07213211153803
C           -2.29928728297823       -0.69423901503688       -3.34137150879377
C           -3.52764732048179       -0.20832619103157       -2.92428972586004
C           -3.58771008867297        0.51567953750271       -1.75466039490598
C           -2.44151110988255        0.73132055110265       -0.98154908142605
C           -2.77264986767114        1.67686581736428        0.13833151014314
C           -4.29402178725913        1.42279784564676        0.30860865561575
C           -4.78879079221402        1.13715535562530       -1.11122495364144
C           -2.53427536598858        3.15241810666160       -0.25989451286765
C           -2.65967637803145        3.91428095801022        1.06554146702935
C           -2.21436740607598        2.89958279302095        2.07562052814267
C           -1.90030094936528        3.07848184921186        3.40496148567579
C           -1.50825709914126        1.97779640714846        4.15190263888582
C           -1.31595963465237        0.72974922302609        3.57556493580897
C           -0.88764973431185       -0.43960586735772        4.40547324113490
C           -1.58562086359446        0.58933806286136        2.21147293904369
C           -2.11374193725301        1.63534942411024        1.48745283105051
O           -1.27061756970173       -0.64936431452206        1.56170923992199
C            3.95238426299236        2.07566925906274        0.04447349268747
H            7.01764097924993        3.00259158671377       -2.32983642422141
H            6.91121963308122        1.23858762097413       -2.59097148957289
H            8.03359724244651        1.89549450430596       -1.37487920085053
H            4.92247331444956        2.33241866165989       -3.19620079802428
H            2.52318887652701        2.64467772341338       -3.48790765484914
H            0.99907772829923        2.59629899718243       -1.53121947330737
H            1.77574947785097       -3.42393496650822       -0.65898040785839
H            3.13766063122390       -0.86781056637356        0.14837244646983
H            3.40838148598894       -1.92907249129968       -1.21857752123745
H            2.02660471560313       -0.84264582150714       -1.22086290354777
H            2.59221292219826       -2.30015646439444        2.06018480715341
H            3.61118441334105       -3.29894185002172        1.01786985708939
H            2.15697255260699       -3.98290809031554        1.72393927432678
H           -1.37378670287978       -4.43797782140855        2.26826901581946
H            0.18829274097129       -3.69762382812997        2.59657554422015