67
 energy: -116.428068651562 gnorm: 0.000025113435 xtb: 6.7.1 (edcfbbe)
C           -0.08083504290924       -4.20821033875196       -0.83232707948964
C           -0.80716497190078       -3.61914268943751        0.37057409865270
C           -2.28332159073556       -3.37199811715766        0.08445312728939
N           -0.17867836456297       -2.37764273848333        0.85645690250825
C            0.58793578969423       -2.43614576383154        2.12034330276492
C            1.76057417329660       -3.40831210772558        2.05610654691447
C           -0.34570927374196       -2.76392398288776        3.28184327533871
P            0.31229062247649       -1.21820868861453       -0.17999195013137
S            2.26007577565880       -1.24005873330333       -1.03383586189763
S            3.32939265347239       -0.23589310655475        0.37931613294068
C            2.91849795848484        1.46154544201079        0.00904707403139
C            2.78647602526110        1.89905729038129       -1.29982212372907
C            2.47773566718794        3.22309567334714       -1.55691684108985
C            2.30316818803459        4.11602991640383       -0.51173114423896
C            2.43788723266427        3.68594004750456        0.79768497997609
C            2.74351991540052        2.35798194988892        1.06318604864382
C            2.88931731843947        1.88276412198504        2.48339348778247
F            1.96879373066541        0.93800750698084        2.79463102369718
F            2.73153370744895        2.85574035736385        3.37775467796523
F            4.08227963322017        1.31744987793450        2.71598320586571
O            0.33574072423266        0.19934974952231        0.52608304253631
C           -0.89606795340500        0.69211768791703        1.03238998328796
C           -1.22351455915032        0.54153797153954        2.37213585594456
C           -2.47356189537722        0.94168475375067        2.82091411866735
C           -3.44217903362194        1.41884659566708        1.95075410018551
C           -3.09346190867515        1.56614348949089        0.62054622212994
C           -1.79714956240444        1.27651497032097        0.17244402718371
C           -1.71189708267761        1.73198494724635       -1.25488017467721
C           -3.22133281461371        1.70269646206412       -1.60783131435831
O           -3.90770865093092        1.94975177158428       -0.38375632967729
C           -1.16522472810424        3.17546930228955       -1.41214800375551
O           -0.63678008220079        3.25822850032782       -2.73409057838931
C           -0.34909503555383        2.00362698446766       -3.13734858169500
C            0.38362685765336        1.64477764852347       -4.25457886433520
C            0.66915896387132        0.29940308383205       -4.43730836208937
C            0.30075928746434       -0.65461616044432       -3.50079631268325
C           -0.45054607963205       -0.27593679225086       -2.39594187154100
C           -0.83312090115230        1.03630812394749       -2.24732472678836
O           -0.72898178929833       -1.20588837123381       -1.36414562420145
H           -0.50481007987346       -5.17998549992729       -1.07196663687094
H            0.97801571128263       -4.34098514961388       -0.62201217286258
H           -0.19174728209382       -3.56882938519958       -1.70442460385821
H           -0.73519247950351       -4.32563420399933        1.19949703137840
H           -2.77694135983795       -4.31894375286641       -0.11626485493105
H           -2.76149371675398       -2.90841362676402        0.94351999421067
H           -2.41327743159979       -2.72686466153142       -0.77887573081200
H            0.99263884267656       -1.42899461588981        2.27170181288811
H            2.32662226634427       -3.34089246653952        2.98103459775694
H            1.42227489813375       -4.43472764384528        1.94197993943702
H            2.43006793076184       -3.16517022454505        1.23337204707368
H           -1.25723389995437       -2.17552118794297        3.22048474603651
H           -0.61153229425255       -3.81722414271773        3.29470661123715
H            0.15504717332104       -2.53520134716007        4.21829394058777
H            2.92925775512725        1.20657361579364       -2.11598502454253
H            2.38061223078474        3.55679190188232       -2.57780105648791
H            2.06850886650635        5.14875296795284       -0.71434599300303
H            2.31017671512483        4.37527972947546        1.61780365224739
H           -0.49865323612729        0.13627983828796        3.05601881460873
H           -2.70935755087009        0.83647448605066        3.86772977284755
H           -4.43603702850943        1.66110663650742        2.28661653706646
H           -3.51580822255359        0.71550987462021       -1.98833833428553
H           -3.50863211761435        2.46597610434628       -2.33045960097150
H           -1.93567189044074        3.93733724582361       -1.29586404546051
H           -0.35504521956192        3.36724861127409       -0.69522365644193
H            0.73015654799188        2.39278844138747       -4.94737972480582
H            1.23512392248801       -0.00887491261949       -5.30136272723078
H            0.60049904501497       -1.68393526784922       -3.61372282434911
