      -----------------------------------------------------------      
     |                   =====================                   |     
     |                           x T B                           |     
     |                   =====================                   |     
     |                         S. Grimme                         |     
     |          Mulliken Center for Theoretical Chemistry        |     
     |                    University of Bonn                     |     
      -----------------------------------------------------------      

   * xtb version 6.7.1 (edcfbbe) compiled by 'conda@3ef47c1a292c' on 2024-11-25

   xtb is free software: you can redistribute it and/or modify it under
   the terms of the GNU Lesser General Public License as published by
   the Free Software Foundation, either version 3 of the License, or
   (at your option) any later version.
   
   xtb is distributed in the hope that it will be useful,
   but WITHOUT ANY WARRANTY; without even the implied warranty of
   MERCHANTABILITY or FITNESS FOR A PARTICULAR PURPOSE.  See the
   GNU Lesser General Public License for more details.
   
   Cite this work as:
   * C. Bannwarth, E. Caldeweyher, S. Ehlert, A. Hansen, P. Pracht,
     J. Seibert, S. Spicher, S. Grimme, WIREs Comput. Mol. Sci., 2020, 11,
     e01493. DOI: 10.1002/wcms.1493
   
   for GFN2-xTB:
   * C. Bannwarth, S. Ehlert and S. Grimme., J. Chem. Theory Comput., 2019,
     15, 1652-1671. DOI: 10.1021/acs.jctc.8b01176
   for GFN1-xTB:
   * S. Grimme, C. Bannwarth, P. Shushkov, J. Chem. Theory Comput., 2017,
     13, 1989-2009. DOI: 10.1021/acs.jctc.7b00118
   for GFN0-xTB:
   * P. Pracht, E. Caldeweyher, S. Ehlert, S. Grimme, ChemRxiv, 2019, preprint.
     DOI: 10.26434/chemrxiv.8326202.v1
   for GFN-FF:
   * S. Spicher and S. Grimme, Angew. Chem. Int. Ed., 2020, 59, 15665-15673.
     DOI: 10.1002/anie.202004239
   
   for ALPB and GBSA implicit solvation:
   * S. Ehlert, M. Stahn, S. Spicher, S. Grimme, J. Chem. Theory Comput.,
     2021, 17, 4250-4261. DOI: 10.1021/acs.jctc.1c00471
   
   for ddCOSMO and CPCM-X implicit solvation:
   * M. Stahn, S. Ehlert, S. Grimme, J. Phys. Chem. A,
     2023, XX, XXXX-XXXX. DOI: 10.1021/acs.jpca.3c04382
   
   for DFT-D4:
   * E. Caldeweyher, C. Bannwarth and S. Grimme, J. Chem. Phys., 2017,
     147, 034112. DOI: 10.1063/1.4993215
   * E. Caldeweyher, S. Ehlert, A. Hansen, H. Neugebauer, S. Spicher,
     C. Bannwarth and S. Grimme, J. Chem. Phys., 2019, 150, 154122.
     DOI: 10.1063/1.5090222
   * E. Caldeweyher, J.-M. Mewes, S. Ehlert and S. Grimme, Phys. Chem. Chem. Phys.
     2020, 22, 8499-8512. DOI: 10.1039/D0CP00502A
   
   for sTDA-xTB:
   * S. Grimme and C. Bannwarth, J. Chem. Phys., 2016, 145, 054103.
     DOI: 10.1063/1.4959605
   
   in the mass-spec context:
   * V. Asgeirsson, C. Bauer and S. Grimme, Chem. Sci., 2017, 8, 4879.
     DOI: 10.1039/c7sc00601b
   * J. Koopman and S. Grimme, ACS Omega 2019, 4, 12, 15120-15133.
     DOI: 10.1021/acsomega.9b02011
   
   for metadynamics refer to:
   * S. Grimme, J. Chem. Theory Comput., 2019, 155, 2847-2862
     DOI: 10.1021/acs.jctc.9b00143
   
   for SPH calculations refer to:
   * S. Spicher and S. Grimme, J. Chem. Theory Comput., 2021, 17, 1701-1714
     DOI: 10.1021/acs.jctc.0c01306
   
   for ONIOM refer to:
   * C. Plett, A. Katbashev, S. Ehlert, S. Grimme, M. Bursch,
     Phys. Chem. Chem. Phys., 2023, 25, 17860-17868. DOI: 10.1039/D3CP02178E
   
   for DIPRO refer to:
   * J. Kohn, N. Gildemeister, S. Grimme, D. Fazzi, A. Hansen,
     J. Chem. Phys., 2023, just accepted.
   
   for PTB refer to:
   * S. Grimme, M. Mueller, A. Hansen, J. Chem. Phys., 2023, 158, 124111.
     DOI: 10.1063/5.0137838
   
   with help from (in alphabetical order)
   P. Atkinson, C. Bannwarth, F. Bohle, G. Brandenburg, E. Caldeweyher
   M. Checinski, S. Dohm, S. Ehlert, S. Ehrlich, I. Gerasimov, C. Hölzer
   A. Katbashev, J. Kohn, J. Koopman, C. Lavigne, S. Lehtola, F. März, M. Müller,
   F. Musil, H. Neugebauer, J. Pisarek, C. Plett, P. Pracht, F. Pultar,
   J. Seibert, P. Shushkov, S. Spicher, M. Stahn, M. Steiner, T. Strunk,
   J. Stückrath, T. Rose, and J. Unsleber
   
 * started run on 2024/12/16 at 20:30:18.695     
   ID    Z sym.   atoms
    1    6 C      1-7, 12-18, 20-40, 42, 43
    2   16 S      8, 9
    3   15 P      10
    4    7 N      11, 19, 41
    5    1 H      44-86

           -------------------------------------------------
          |                Calculation Setup                |
           -------------------------------------------------

          program call               : xtb --gfn2 --opt extreme -P 8 --charge 1 molecule.xyz
          hostname                   : node20
          coordinate file            : molecule.xyz
          omp threads                :                     8


           -------------------------------------------------
          |                 G F N 2 - x T B                 |
           -------------------------------------------------

        Reference                      10.1021/acs.jctc.8b01176
      * Hamiltonian:
        H0-scaling (s, p, d)           1.850000    2.230000    2.230000
        zeta-weighting                 0.500000
      * Dispersion:
        s8                             2.700000
        a1                             0.520000
        a2                             5.000000
        s9                             5.000000
      * Repulsion:
        kExp                           1.500000    1.000000
        rExp                           1.000000
      * Coulomb:
        alpha                          2.000000
        third order                    shell-resolved
        anisotropic                    true
        a3                             3.000000
        a5                             4.000000
        cn-shift                       1.200000
        cn-exp                         4.000000
        max-rad                        5.000000


          ...................................................
          :                      SETUP                      :
          :.................................................:
          :  # basis functions                 233          :
          :  # atomic orbitals                 230          :
          :  # shells                          132          :
          :  # electrons                       222          :
          :  max. iterations                   250          :
          :  Hamiltonian                  GFN2-xTB          :
          :  restarted?                      false          :
          :  GBSA solvation                  false          :
          :  PC potential                    false          :
          :  electronic temp.          300.0000000     K    :
          :  accuracy                    1.0000000          :
          :  -> integral cutoff          0.2500000E+02      :
          :  -> integral neglect         0.1000000E-07      :
          :  -> SCF convergence          0.1000000E-05 Eh   :
          :  -> wf. convergence          0.1000000E-03 e    :
          :  Broyden damping             0.4000000          :
          :  net charge                          1          :
          :  unpaired electrons                  0          :
          ...................................................

 iter      E             dE          RMSdq      gap      omega  full diag
   1   -120.2930332 -0.120293E+03  0.426E+00    1.73       0.0  T
   2   -120.4631493 -0.170116E+00  0.260E+00    2.11       1.0  T
   3   -120.4482284  0.149209E-01  0.133E+00    2.02       1.0  T
   4   -120.4728221 -0.245937E-01  0.637E-01    1.76       1.0  T
   5   -120.4965128 -0.236907E-01  0.279E-01    1.86       1.0  T
   6   -120.4990442 -0.253147E-02  0.148E-01    1.83       1.0  T
   7   -120.5006463 -0.160205E-02  0.513E-02    1.85       1.0  T
   8   -120.5006981 -0.517552E-04  0.271E-02    1.85       1.0  T
   9   -120.5007093 -0.112948E-04  0.135E-02    1.85       1.0  T
  10   -120.5007111 -0.174885E-05  0.810E-03    1.85       1.3  T
  11   -120.5007121 -0.965587E-06  0.442E-03    1.85       2.4  T
  12   -120.5007124 -0.343058E-06  0.261E-03    1.85       4.1  T
  13   -120.5007124 -0.422996E-07  0.143E-03    1.85       7.5  T
  14   -120.5007125 -0.643098E-07  0.521E-04    1.85      20.7  T
  15   -120.5007125 -0.228313E-08  0.238E-04    1.85      45.3  T

   *** convergence criteria satisfied after 15 iterations ***

         #    Occupation            Energy/Eh            Energy/eV
      -------------------------------------------------------------
         1        2.0000           -0.8523239             -23.1929
       ...           ...                  ...                  ...
       105        2.0000           -0.4933129             -13.4237
       106        2.0000           -0.4885613             -13.2944
       107        2.0000           -0.4877995             -13.2737
       108        2.0000           -0.4822520             -13.1227
       109        2.0000           -0.4784687             -13.0198
       110        2.0000           -0.4648223             -12.6485
       111        2.0000           -0.4504578             -12.2576 (HOMO)
       112                         -0.3825149             -10.4088 (LUMO)
       113                         -0.3681386             -10.0176
       114                         -0.3532359              -9.6120
       115                         -0.3465119              -9.4291
       116                         -0.3231614              -8.7937
       ...                                ...                  ...
       230                          1.0466346              28.4804
      -------------------------------------------------------------
                  HL-Gap            0.0679429 Eh            1.8488 eV
             Fermi-level           -0.4164863 Eh          -11.3332 eV

 SCC (total)                   0 d,  0 h,  0 min,  2.637 sec
 SCC setup                      ...        0 min,  0.000 sec (  0.012%)
 Dispersion                     ...        0 min,  0.001 sec (  0.053%)
 classical contributions        ...        0 min,  0.000 sec (  0.004%)
 integral evaluation            ...        0 min,  0.007 sec (  0.254%)
 iterations                     ...        0 min,  2.476 sec ( 93.916%)
 molecular gradient             ...        0 min,  0.120 sec (  4.559%)
 printout                       ...        0 min,  0.032 sec (  1.202%)

         :::::::::::::::::::::::::::::::::::::::::::::::::::::
         ::                     SUMMARY                     ::
         :::::::::::::::::::::::::::::::::::::::::::::::::::::
         :: total energy            -118.672268577272 Eh    ::
         :: gradient norm              0.134602883241 Eh/a0 ::
         :: HOMO-LUMO gap              1.848821242009 eV    ::
         ::.................................................::
         :: SCC energy              -120.493394014429 Eh    ::
         :: -> isotropic ES            0.079429035357 Eh    ::
         :: -> anisotropic ES          0.005741956024 Eh    ::
         :: -> anisotropic XC          0.072615642914 Eh    ::
         :: -> dispersion             -0.132321927572 Eh    ::
         :: repulsion energy           1.821125437157 Eh    ::
         :: add. restraining           0.000000000000 Eh    ::
         :: total charge               1.000000000000 e     ::
         :::::::::::::::::::::::::::::::::::::::::::::::::::::

      ----------------------------------------------------------- 
     |                   =====================                   |
     |                        A N C O P T                        |
     |                   =====================                   |
     |               Approximate Normal Coordinate               |
     |                Rational Function Optimizer                |
      ----------------------------------------------------------- 
      ----------------------------------------------------------- 
     |                   =====================                   |
     |                        A N C O P T                        |
     |                   =====================                   |
     |               Approximate Normal Coordinate               |
     |                Rational Function Optimizer                |
      ----------------------------------------------------------- 

          ...................................................
          :                      SETUP                      :
          :.................................................:
          :   optimization level           extreme          :
          :   max. optcycles                  1720          :
          :   ANC micro-cycles                  20          :
          :   degrees of freedom               252          :
          :.................................................:
          :   RF solver                   davidson          :
          :   write xtbopt.log                true          :
          :   linear?                        false          :
          :   energy convergence         0.5000000E-07 Eh   :
          :   grad. convergence          0.5000000E-04 Eh/α :
          :   maxmium RF displ.          1.0000000          :
          :   Hlow (freq-cutoff)         0.1000000E-01      :
          :   Hmax (freq-cutoff)         5.0000000          :
          :   S6 in model hess.         20.0000000          :
          ...................................................

generating ANC from exact Hessian ...
Using Lindh-Hessian (1995)
 Shifting diagonal of input Hessian by    9.9053613525062357E-003
 Lowest  eigenvalues of input Hessian
    0.000000    0.000000    0.000000    0.000000    0.000000    0.000000
    0.010000    0.010041    0.010115    0.010216    0.010228    0.010301
    0.010460    0.010611    0.010823    0.011019    0.011280    0.011464
 Highest eigenvalues
    1.917047    1.968726    2.002327    2.028899    2.065968    2.079971


........................................................................
.............................. CYCLE    1 ..............................
........................................................................

 iter      E             dE          RMSdq      gap      omega  full diag
   1   -120.5007125 -0.120501E+03  0.110E-04    1.85       0.0  T
   2   -120.5007125 -0.123094E-09  0.725E-05    1.85     148.7  T
   3   -120.5007125 -0.125311E-09  0.501E-05    1.85     215.4  T
     SCC iter.                  ...        0 min,  0.286 sec
     gradient                   ...        0 min,  0.116 sec
 * total energy  :  -118.6722686 Eh     change       -0.1290019E-08 Eh
   gradient norm :     0.1346028 Eh/α   predicted     0.0000000E+00 (-100.00%)
   displ. norm   :     0.4314196 α      lambda       -0.2918418E-01
   maximum displ.:     0.1299556 α      in ANC's #25, #55, #61, ...

........................................................................
.............................. CYCLE    2 ..............................
........................................................................

 iter      E             dE          RMSdq      gap      omega  full diag
   1   -120.5765447 -0.120577E+03  0.258E-01    1.97       0.0  T
   2   -120.5766933 -0.148533E-03  0.137E-01    2.04       1.0  T
   3   -120.5765989  0.943599E-04  0.489E-02    2.07       1.0  T
   4   -120.5767143 -0.115359E-03  0.229E-02    2.08       1.0  T
   5   -120.5767319 -0.176166E-04  0.118E-02    2.07       1.0  T
   6   -120.5767386 -0.669290E-05  0.488E-03    2.07       2.2  T
   7   -120.5767394 -0.868428E-06  0.290E-03    2.07       3.7  T
   8   -120.5767396 -0.126489E-06  0.169E-03    2.07       6.4  T
   9   -120.5767396 -0.343256E-07  0.888E-04    2.07      12.1  T
  10   -120.5767396 -0.768121E-08  0.399E-04    2.07      27.0  T
     SCC iter.                  ...        0 min,  1.200 sec
     gradient                   ...        0 min,  0.117 sec
 * total energy  :  -118.6928875 Eh     change       -0.2061895E-01 Eh
   gradient norm :     0.0585276 Eh/α   predicted    -0.1734211E-01 ( -15.89%)
   displ. norm   :     0.4438594 α      lambda       -0.1113236E-01
   maximum displ.:     0.1404224 α      in ANC's #17, #15, #55, ...

........................................................................
.............................. CYCLE    3 ..............................
........................................................................

 iter      E             dE          RMSdq      gap      omega  full diag
   1   -120.6248275 -0.120625E+03  0.185E-01    2.23       0.0  T
   2   -120.6248945 -0.669622E-04  0.989E-02    2.26       1.0  T
   3   -120.6248656  0.289346E-04  0.336E-02    2.28       1.0  T
   4   -120.6249046 -0.390677E-04  0.132E-02    2.28       1.0  T
   5   -120.6249103 -0.570669E-05  0.689E-03    2.27       1.6  T
   6   -120.6249122 -0.186099E-05  0.316E-03    2.27       3.4  T
   7   -120.6249125 -0.270326E-06  0.192E-03    2.27       5.6  T
   8   -120.6249125 -0.803805E-07  0.101E-03    2.27      10.7  T
   9   -120.6249126 -0.130907E-07  0.579E-04    2.27      18.6  T
  10   -120.6249126 -0.419470E-08  0.255E-04    2.27      42.2  T
     SCC iter.                  ...        0 min,  1.311 sec
     gradient                   ...        0 min,  0.116 sec
 * total energy  :  -118.6999144 Eh     change       -0.7026903E-02 Eh
   gradient norm :     0.0156376 Eh/α   predicted    -0.6662785E-02 (  -5.18%)
   displ. norm   :     0.4225470 α      lambda       -0.3101247E-02
   maximum displ.:     0.1878964 α      in ANC's #17, #15, #9, ...

........................................................................
.............................. CYCLE    4 ..............................
........................................................................

 iter      E             dE          RMSdq      gap      omega  full diag
   1   -120.6307355 -0.120631E+03  0.101E-01    2.33       0.0  T
   2   -120.6307627 -0.272235E-04  0.531E-02    2.34       1.0  T
   3   -120.6307582  0.453748E-05  0.193E-02    2.35       1.0  T
   4   -120.6307657 -0.759018E-05  0.747E-03    2.35       1.4  T
   5   -120.6307674 -0.162705E-05  0.358E-03    2.35       3.0  T
   6   -120.6307680 -0.600685E-06  0.167E-03    2.35       6.5  T
   7   -120.6307681 -0.109219E-06  0.757E-04    2.35      14.2  T
   8   -120.6307681 -0.253557E-07  0.393E-04    2.35      27.4  T
     SCC iter.                  ...        0 min,  0.955 sec
     gradient                   ...        0 min,  0.127 sec
 * total energy  :  -118.7022267 Eh     change       -0.2312244E-02 Eh
   gradient norm :     0.0142114 Eh/α   predicted    -0.1827483E-02 ( -20.96%)
   displ. norm   :     0.5118330 α      lambda       -0.2307488E-02
   maximum displ.:     0.2386769 α      in ANC's #17, #9, #15, ...

........................................................................
.............................. CYCLE    5 ..............................
........................................................................

 iter      E             dE          RMSdq      gap      omega  full diag
   1   -120.6325314 -0.120633E+03  0.852E-02    2.37       0.0  T
   2   -120.6325542 -0.228249E-04  0.482E-02    2.37       1.0  T
   3   -120.6325507  0.349831E-05  0.200E-02    2.37       1.0  T
   4   -120.6325583 -0.758369E-05  0.590E-03    2.37       1.8  T
   5   -120.6325587 -0.370402E-06  0.364E-03    2.37       3.0  T
   6   -120.6325592 -0.497472E-06  0.136E-03    2.37       7.9  T
   7   -120.6325592 -0.167398E-07  0.760E-04    2.37      14.2  T
   8   -120.6325592 -0.777098E-08  0.394E-04    2.37      27.4  T
     SCC iter.                  ...        0 min,  1.169 sec
     gradient                   ...        0 min,  0.122 sec
 * total energy  :  -118.7038549 Eh     change       -0.1628232E-02 Eh
   gradient norm :     0.0115213 Eh/α   predicted    -0.1455997E-02 ( -10.58%)
   displ. norm   :     0.4629321 α      lambda       -0.1310867E-02
   maximum displ.:     0.1948098 α      in ANC's #17, #9, #18, ...

........................................................................
.............................. CYCLE    6 ..............................
........................................................................

 iter      E             dE          RMSdq      gap      omega  full diag
   1   -120.6309705 -0.120631E+03  0.959E-02    2.36       0.0  T
   2   -120.6309899 -0.193850E-04  0.460E-02    2.37       1.0  T
   3   -120.6309892  0.765430E-06  0.139E-02    2.37       1.0  T
   4   -120.6309911 -0.191112E-05  0.788E-03    2.38       1.4  T
   5   -120.6309926 -0.149570E-05  0.285E-03    2.37       3.8  T
   6   -120.6309929 -0.319716E-06  0.137E-03    2.38       7.9  T
   7   -120.6309930 -0.115145E-06  0.520E-04    2.37      20.8  T
   8   -120.6309930 -0.731859E-08  0.270E-04    2.38      40.0  T
     SCC iter.                  ...        0 min,  1.175 sec
     gradient                   ...        0 min,  0.123 sec
 * total energy  :  -118.7046936 Eh     change       -0.8386575E-03 Eh
   gradient norm :     0.0081013 Eh/α   predicted    -0.7959052E-03 (  -5.10%)
   displ. norm   :     0.3790640 α      lambda       -0.7789591E-03
   maximum displ.:     0.1497785 α      in ANC's #9, #17, #12, ...

........................................................................
.............................. CYCLE    7 ..............................
........................................................................

 iter      E             dE          RMSdq      gap      omega  full diag
   1   -120.6334549 -0.120633E+03  0.623E-02    2.38       0.0  T
   2   -120.6334627 -0.784905E-05  0.337E-02    2.38       1.0  T
   3   -120.6334614  0.130621E-05  0.101E-02    2.38       1.1  T
   4   -120.6334630 -0.161712E-05  0.451E-03    2.37       2.4  T
   5   -120.6334638 -0.823205E-06  0.211E-03    2.37       5.1  T
   6   -120.6334639 -0.662515E-07  0.116E-03    2.37       9.3  T
   7   -120.6334639 -0.244984E-07  0.638E-04    2.37      16.9  T
   8   -120.6334639 -0.836857E-08  0.401E-04    2.37      26.9  T
     SCC iter.                  ...        0 min,  1.252 sec
     gradient                   ...        0 min,  0.120 sec
 * total energy  :  -118.7051829 Eh     change       -0.4892857E-03 Eh
   gradient norm :     0.0075287 Eh/α   predicted    -0.4454604E-03 (  -8.96%)
   displ. norm   :     0.2854025 α      lambda       -0.4283150E-03
   maximum displ.:     0.1108299 α      in ANC's #5, #9, #12, ...

........................................................................
.............................. CYCLE    8 ..............................
........................................................................

 iter      E             dE          RMSdq      gap      omega  full diag
   1   -120.6359232 -0.120636E+03  0.436E-02    2.38       0.0  T
   2   -120.6359259 -0.264794E-05  0.232E-02    2.38       1.0  T
   3   -120.6359237  0.217535E-05  0.822E-03    2.38       1.3  T
   4   -120.6359263 -0.266962E-05  0.337E-03    2.38       3.2  T
   5   -120.6359265 -0.122189E-06  0.177E-03    2.38       6.1  T
   6   -120.6359267 -0.240066E-06  0.586E-04    2.38      18.4  T
   7   -120.6359267 -0.176581E-07  0.298E-04    2.38      36.2  T
     SCC iter.                  ...        0 min,  0.916 sec
     gradient                   ...        0 min,  0.125 sec
 * total energy  :  -118.7054937 Eh     change       -0.3108259E-03 Eh
   gradient norm :     0.0061014 Eh/α   predicted    -0.2316031E-03 ( -25.49%)
   displ. norm   :     0.3019469 α      lambda       -0.3477734E-03
   maximum displ.:     0.1395496 α      in ANC's #5, #6, #9, ...

........................................................................
.............................. CYCLE    9 ..............................
........................................................................

 iter      E             dE          RMSdq      gap      omega  full diag
   1   -120.6372415 -0.120637E+03  0.513E-02    2.37       0.0  T
   2   -120.6372463 -0.480760E-05  0.263E-02    2.37       1.0  T
   3   -120.6372448  0.151382E-05  0.894E-03    2.37       1.2  T
   4   -120.6372466 -0.184736E-05  0.421E-03    2.37       2.6  T
   5   -120.6372470 -0.356582E-06  0.225E-03    2.37       4.8  T
   6   -120.6372474 -0.377801E-06  0.730E-04    2.37      14.8  T
   7   -120.6372474 -0.272375E-07  0.309E-04    2.37      34.9  T
     SCC iter.                  ...        0 min,  1.049 sec
     gradient                   ...        0 min,  0.116 sec
 * total energy  :  -118.7057248 Eh     change       -0.2310894E-03 Eh
   gradient norm :     0.0041984 Eh/α   predicted    -0.1897431E-03 ( -17.89%)
   displ. norm   :     0.2278343 α      lambda       -0.1816685E-03
   maximum displ.:     0.1219268 α      in ANC's #5, #6, #10, ...

........................................................................
.............................. CYCLE   10 ..............................
........................................................................

 iter      E             dE          RMSdq      gap      omega  full diag
   1   -120.6378686 -0.120638E+03  0.298E-02    2.38       0.0  T
   2   -120.6378699 -0.129567E-05  0.167E-02    2.38       1.0  T
   3   -120.6378689  0.998543E-06  0.597E-03    2.38       1.8  T
   4   -120.6378702 -0.130397E-05  0.198E-03    2.38       5.4  T
   5   -120.6378703 -0.710788E-07  0.894E-04    2.38      12.1  T
   6   -120.6378703 -0.299492E-07  0.392E-04    2.38      27.5  T
     SCC iter.                  ...        0 min,  0.774 sec
     gradient                   ...        0 min,  0.117 sec
 * total energy  :  -118.7058502 Eh     change       -0.1253925E-03 Eh
   gradient norm :     0.0034337 Eh/α   predicted    -0.9555134E-04 ( -23.80%)
   displ. norm   :     0.2015631 α      lambda       -0.1324281E-03
   maximum displ.:     0.1205454 α      in ANC's #5, #6, #10, ...

........................................................................
.............................. CYCLE   11 ..............................
........................................................................

 iter      E             dE          RMSdq      gap      omega  full diag
   1   -120.6375290 -0.120638E+03  0.273E-02    2.37       0.0  T
   2   -120.6375296 -0.551760E-06  0.149E-02    2.37       1.0  T
   3   -120.6375295  0.443556E-07  0.294E-03    2.38       3.7  T
   4   -120.6375296 -0.516119E-07  0.145E-03    2.37       7.4  T
   5   -120.6375297 -0.940688E-07  0.434E-04    2.38      24.8  T
   6   -120.6375297 -0.615969E-08  0.168E-04    2.38      64.0  T
     SCC iter.                  ...        0 min,  1.005 sec
     gradient                   ...        0 min,  0.122 sec
 * total energy  :  -118.7059548 Eh     change       -0.1046149E-03 Eh
   gradient norm :     0.0032986 Eh/α   predicted    -0.6890513E-04 ( -34.13%)
   displ. norm   :     0.2424460 α      lambda       -0.1508311E-03
   maximum displ.:     0.1482291 α      in ANC's #5, #6, #7, ...

........................................................................
.............................. CYCLE   12 ..............................
........................................................................

 iter      E             dE          RMSdq      gap      omega  full diag
   1   -120.6370320 -0.120637E+03  0.335E-02    2.38       0.0  T
   2   -120.6370326 -0.559546E-06  0.194E-02    2.38       1.0  T
   3   -120.6370315  0.107899E-05  0.430E-03    2.38       2.5  T
   4   -120.6370326 -0.109669E-05  0.172E-03    2.38       6.3  T
   5   -120.6370327 -0.148678E-06  0.854E-04    2.38      12.6  T
   6   -120.6370328 -0.522135E-07  0.260E-04    2.38      41.4  T
     SCC iter.                  ...        0 min,  1.047 sec
     gradient                   ...        0 min,  0.121 sec
 * total energy  :  -118.7060763 Eh     change       -0.1215297E-03 Eh
   gradient norm :     0.0033624 Eh/α   predicted    -0.7984940E-04 ( -34.30%)
   displ. norm   :     0.2986997 α      lambda       -0.1592868E-03
   maximum displ.:     0.1834651 α      in ANC's #5, #6, #7, ...

........................................................................
.............................. CYCLE   13 ..............................
........................................................................

 iter      E             dE          RMSdq      gap      omega  full diag
   1   -120.6364620 -0.120636E+03  0.407E-02    2.38       0.0  T
   2   -120.6364627 -0.638522E-06  0.236E-02    2.38       1.0  T
   3   -120.6364614  0.131162E-05  0.466E-03    2.38       2.3  T
   4   -120.6364627 -0.134648E-05  0.189E-03    2.38       5.7  T
   5   -120.6364629 -0.166482E-06  0.101E-03    2.38      10.6  T
   6   -120.6364629 -0.703354E-07  0.339E-04    2.38      31.8  T
   7   -120.6364629 -0.233962E-08  0.215E-04    2.38      50.0  T
     SCC iter.                  ...        0 min,  1.232 sec
     gradient                   ...        0 min,  0.113 sec
 * total energy  :  -118.7062057 Eh     change       -0.1294078E-03 Eh
   gradient norm :     0.0033975 Eh/α   predicted    -0.8675342E-04 ( -32.96%)
   displ. norm   :     0.3288292 α      lambda       -0.1538235E-03
   maximum displ.:     0.2032259 α      in ANC's #5, #6, #7, ...

........................................................................
.............................. CYCLE   14 ..............................
........................................................................

 iter      E             dE          RMSdq      gap      omega  full diag
   1   -120.6364158 -0.120636E+03  0.433E-02    2.39       0.0  T
   2   -120.6364164 -0.591291E-06  0.248E-02    2.39       1.0  T
   3   -120.6364156  0.853797E-06  0.423E-03    2.39       2.6  T
   4   -120.6364165 -0.878737E-06  0.189E-03    2.39       5.7  T
   5   -120.6364166 -0.147240E-06  0.969E-04    2.39      11.1  T
   6   -120.6364167 -0.718756E-07  0.298E-04    2.39      36.2  T
     SCC iter.                  ...        0 min,  0.768 sec
     gradient                   ...        0 min,  0.119 sec
 * total energy  :  -118.7063327 Eh     change       -0.1270298E-03 Eh
   gradient norm :     0.0033778 Eh/α   predicted    -0.8522898E-04 ( -32.91%)
   displ. norm   :     0.3360806 α      lambda       -0.1445140E-03
   maximum displ.:     0.2100862 α      in ANC's #5, #6, #1, ...

........................................................................
.............................. CYCLE   15 ..............................
........................................................................

 iter      E             dE          RMSdq      gap      omega  full diag
   1   -120.6370153 -0.120637E+03  0.422E-02    2.40       0.0  T
   2   -120.6370159 -0.555731E-06  0.241E-02    2.40       1.0  T
   3   -120.6370154  0.496548E-06  0.378E-03    2.40       2.9  T
   4   -120.6370160 -0.576428E-06  0.171E-03    2.39       6.3  T
   5   -120.6370161 -0.990703E-07  0.660E-04    2.40      16.3  T
   6   -120.6370161 -0.295763E-07  0.255E-04    2.40      42.3  T
     SCC iter.                  ...        0 min,  0.822 sec
     gradient                   ...        0 min,  0.120 sec
 * total energy  :  -118.7064523 Eh     change       -0.1195976E-03 Eh
   gradient norm :     0.0031477 Eh/α   predicted    -0.8041892E-04 ( -32.76%)
   displ. norm   :     0.3232048 α      lambda       -0.1259806E-03
   maximum displ.:     0.2044796 α      in ANC's #5, #1, #6, ...

........................................................................
.............................. CYCLE   16 ..............................
........................................................................

 iter      E             dE          RMSdq      gap      omega  full diag
   1   -120.6379189 -0.120638E+03  0.388E-02    2.40       0.0  T
   2   -120.6379194 -0.509358E-06  0.223E-02    2.40       1.0  T
   3   -120.6379189  0.534888E-06  0.376E-03    2.40       2.9  T
   4   -120.6379195 -0.662830E-06  0.148E-03    2.40       7.3  T
   5   -120.6379196 -0.578590E-07  0.416E-04    2.40      25.9  T
   6   -120.6379196 -0.810944E-08  0.169E-04    2.40      63.6  T
     SCC iter.                  ...        0 min,  0.977 sec
     gradient                   ...        0 min,  0.120 sec
 * total energy  :  -118.7065562 Eh     change       -0.1038838E-03 Eh
   gradient norm :     0.0026567 Eh/α   predicted    -0.6957156E-04 ( -33.03%)
   displ. norm   :     0.3014711 α      lambda       -0.1040277E-03
   maximum displ.:     0.1920857 α      in ANC's #5, #1, #7, ...

........................................................................
.............................. CYCLE   17 ..............................
........................................................................

 iter      E             dE          RMSdq      gap      omega  full diag
   1   -120.6386187 -0.120639E+03  0.346E-02    2.41       0.0  T
   2   -120.6386191 -0.408668E-06  0.201E-02    2.41       1.0  T
   3   -120.6386184  0.730363E-06  0.378E-03    2.41       2.9  T
   4   -120.6386192 -0.846733E-06  0.125E-03    2.41       8.7  T
   5   -120.6386193 -0.301282E-07  0.609E-04    2.41      17.7  T
   6   -120.6386193 -0.299472E-07  0.196E-04    2.41      55.0  T
     SCC iter.                  ...        0 min,  1.060 sec
     gradient                   ...        0 min,  0.131 sec
 * total energy  :  -118.7066426 Eh     change       -0.8642527E-04 Eh
   gradient norm :     0.0021426 Eh/α   predicted    -0.5674263E-04 ( -34.34%)
   displ. norm   :     0.2893717 α      lambda       -0.8988514E-04
   maximum displ.:     0.1838812 α      in ANC's #5, #1, #7, ...

........................................................................
.............................. CYCLE   18 ..............................
........................................................................

 iter      E             dE          RMSdq      gap      omega  full diag
   1   -120.6389171 -0.120639E+03  0.322E-02    2.42       0.0  T
   2   -120.6389174 -0.331371E-06  0.188E-02    2.42       1.0  T
   3   -120.6389167  0.669100E-06  0.342E-03    2.42       3.2  T
   4   -120.6389175 -0.772380E-06  0.999E-04    2.42      10.8  T
   5   -120.6389175 -0.211883E-07  0.556E-04    2.42      19.4  T
     SCC iter.                  ...        0 min,  0.579 sec
     gradient                   ...        0 min,  0.125 sec
 * total energy  :  -118.7067177 Eh     change       -0.7507460E-04 Eh
   gradient norm :     0.0019436 Eh/α   predicted    -0.4870730E-04 ( -35.12%)
   displ. norm   :     0.4453219 α      lambda       -0.8250131E-04
   maximum displ.:     0.2805368 α      in ANC's #5, #1, #2, ...

........................................................................
.............................. CYCLE   19 ..............................
........................................................................

 iter      E             dE          RMSdq      gap      omega  full diag
   1   -120.6385297 -0.120639E+03  0.484E-02    2.42       0.0  T
   2   -120.6385304 -0.690048E-06  0.284E-02    2.43       1.0  T
   3   -120.6385292  0.126858E-05  0.471E-03    2.43       2.3  T
   4   -120.6385307 -0.150721E-05  0.131E-03    2.43       8.2  T
   5   -120.6385307 -0.311404E-07  0.731E-04    2.43      14.8  T
   6   -120.6385307 -0.358870E-07  0.292E-04    2.43      36.9  T
     SCC iter.                  ...        0 min,  0.987 sec
     gradient                   ...        0 min,  0.116 sec
 * total energy  :  -118.7068080 Eh     change       -0.9030337E-04 Eh
   gradient norm :     0.0023429 Eh/α   predicted    -0.4488758E-04 ( -50.29%)
   displ. norm   :     0.1992875 α      lambda       -0.4379873E-04
   maximum displ.:     0.1244222 α      in ANC's #5, #1, #2, ...

........................................................................
.............................. CYCLE   20 ..............................
........................................................................

 iter      E             dE          RMSdq      gap      omega  full diag
   1   -120.6384412 -0.120638E+03  0.210E-02    2.43       0.0  T
   2   -120.6384413 -0.119400E-06  0.123E-02    2.43       1.0  T
   3   -120.6384412  0.132517E-06  0.158E-03    2.43       6.8  T
   4   -120.6384413 -0.161824E-06  0.590E-04    2.43      18.3  T
   5   -120.6384413 -0.122397E-07  0.286E-04    2.43      37.7  T
     SCC iter.                  ...        0 min,  0.628 sec
     gradient                   ...        0 min,  0.117 sec
 * total energy  :  -118.7068452 Eh     change       -0.3716206E-04 Eh
   gradient norm :     0.0019678 Eh/α   predicted    -0.2277141E-04 ( -38.72%)
   displ. norm   :     0.3939684 α      lambda       -0.5466234E-04
   maximum displ.:     0.2425408 α      in ANC's #5, #1, #2, ...
 * RMSD in coord.:     0.5153349 α      energy gain  -0.3457661E-01 Eh

generating ANC from exact Hessian ...
Using Lindh-Hessian (1995)
 Shifting diagonal of input Hessian by    1.0082310936398367E-002
 Lowest  eigenvalues of input Hessian
    0.000000    0.010000    0.000000    0.000000    0.000000    0.000000
    0.000000    0.010181    0.010243    0.010300    0.010386    0.010484
    0.010685    0.010752    0.010877    0.011030    0.011138    0.011504
 Highest eigenvalues
    1.996393    1.999161    2.028830    2.075121    2.115452    2.126380


........................................................................
.............................. CYCLE   21 ..............................
........................................................................

 iter      E             dE          RMSdq      gap      omega  full diag
   1   -120.6379511 -0.120638E+03  0.417E-02    2.43       0.0  T
   2   -120.6379515 -0.480054E-06  0.243E-02    2.43       1.0  T
   3   -120.6379511  0.437478E-06  0.296E-03    2.43       3.6  T
   4   -120.6379517 -0.560121E-06  0.119E-03    2.43       9.1  T
   5   -120.6379517 -0.548297E-07  0.455E-04    2.43      23.7  T
   6   -120.6379517 -0.834790E-08  0.242E-04    2.43      44.6  T
     SCC iter.                  ...        0 min,  0.901 sec
     gradient                   ...        0 min,  0.131 sec
 * total energy  :  -118.7068965 Eh     change       -0.5129735E-04 Eh
   gradient norm :     0.0012768 Eh/α   predicted     0.0000000E+00 (-100.00%)
   displ. norm   :     0.0379621 α      lambda       -0.1537498E-05
   maximum displ.:     0.0135589 α      in ANC's #3, #6, #5, ...

........................................................................
.............................. CYCLE   22 ..............................
........................................................................

 iter      E             dE          RMSdq      gap      omega  full diag
   1   -120.6385329 -0.120639E+03  0.713E-03    2.43       0.0  T
   2   -120.6385330 -0.709265E-07  0.394E-03    2.43       2.7  T
   3   -120.6385330  0.168089E-07  0.899E-04    2.43      12.0  T
   4   -120.6385330 -0.208123E-07  0.413E-04    2.43      26.1  T
     SCC iter.                  ...        0 min,  0.497 sec
     gradient                   ...        0 min,  0.121 sec
 * total energy  :  -118.7069104 Eh     change       -0.1386480E-04 Eh
   gradient norm :     0.0006194 Eh/α   predicted    -0.5551907E-05 ( -59.96%)
   displ. norm   :     0.1593443 α      lambda       -0.3378393E-04
   maximum displ.:     0.0639271 α      in ANC's #6, #3, #8, ...

........................................................................
.............................. CYCLE   23 ..............................
........................................................................

 iter      E             dE          RMSdq      gap      omega  full diag
   1   -120.6392895 -0.120639E+03  0.238E-02    2.43       0.0  T
   2   -120.6392903 -0.844561E-06  0.137E-02    2.43       1.0  T
   3   -120.6392901  0.275218E-06  0.324E-03    2.43       3.3  T
   4   -120.6392904 -0.335593E-06  0.146E-03    2.43       7.4  T
   5   -120.6392905 -0.599319E-07  0.730E-04    2.43      14.8  T
   6   -120.6392905 -0.215442E-07  0.389E-04    2.43      27.7  T
     SCC iter.                  ...        0 min,  0.905 sec
     gradient                   ...        0 min,  0.120 sec
 * total energy  :  -118.7069335 Eh     change       -0.2315990E-04 Eh
   gradient norm :     0.0019697 Eh/α   predicted    -0.1708578E-04 ( -26.23%)
   displ. norm   :     0.1404506 α      lambda       -0.2869534E-04
   maximum displ.:     0.0570026 α      in ANC's #6, #3, #8, ...

........................................................................
.............................. CYCLE   24 ..............................
........................................................................

 iter      E             dE          RMSdq      gap      omega  full diag
   1   -120.6387778 -0.120639E+03  0.339E-02    2.43       0.0  T
   2   -120.6387801 -0.229509E-05  0.162E-02    2.43       1.0  T
   3   -120.6387801  0.273133E-07  0.486E-03    2.43       2.2  T
   4   -120.6387800  0.255526E-07  0.256E-03    2.43       4.2  T
   5   -120.6387803 -0.309399E-06  0.102E-03    2.43      10.5  T
   6   -120.6387804 -0.180689E-07  0.465E-04    2.43      23.2  T
   7   -120.6387804 -0.429665E-08  0.291E-04    2.43      37.1  T
     SCC iter.                  ...        0 min,  1.068 sec
     gradient                   ...        0 min,  0.116 sec
 * total energy  :  -118.7069382 Eh     change       -0.4674037E-05 Eh
   gradient norm :     0.0023399 Eh/α   predicted    -0.1447709E-04 ( 209.73%)
   displ. norm   :     0.0231562 α      lambda       -0.2032150E-04
   maximum displ.:     0.0084693 α      in ANC's #11, #5, #1, ...

........................................................................
.............................. CYCLE   25 ..............................
........................................................................

 iter      E             dE          RMSdq      gap      omega  full diag
   1   -120.6389721 -0.120639E+03  0.891E-03    2.43       0.0  T
   2   -120.6389723 -0.222938E-06  0.416E-03    2.43       2.6  T
   3   -120.6389723  0.447325E-08  0.136E-03    2.43       7.9  T
   4   -120.6389723  0.843444E-08  0.752E-04    2.43      14.3  T
   5   -120.6389723 -0.314985E-07  0.323E-04    2.43      33.3  T
     SCC iter.                  ...        0 min,  0.710 sec
     gradient                   ...        0 min,  0.118 sec
 * total energy  :  -118.7069541 Eh     change       -0.1592184E-04 Eh
   gradient norm :     0.0014211 Eh/α   predicted    -0.1016973E-04 ( -36.13%)
   displ. norm   :     0.0852517 α      lambda       -0.2409950E-04
   maximum displ.:     0.0389432 α      in ANC's #6, #1, #11, ...

........................................................................
.............................. CYCLE   26 ..............................
........................................................................

 iter      E             dE          RMSdq      gap      omega  full diag
   1   -120.6390986 -0.120639E+03  0.180E-02    2.43       0.0  T
   2   -120.6390994 -0.805957E-06  0.912E-03    2.43       1.2  T
   3   -120.6390993  0.856822E-07  0.305E-03    2.43       3.5  T
   4   -120.6390993 -0.161960E-07  0.163E-03    2.43       6.6  T
   5   -120.6390995 -0.155755E-06  0.672E-04    2.43      16.0  T
   6   -120.6390995 -0.118067E-07  0.365E-04    2.43      29.6  T
     SCC iter.                  ...        0 min,  0.805 sec
     gradient                   ...        0 min,  0.116 sec
 * total energy  :  -118.7069716 Eh     change       -0.1749472E-04 Eh
   gradient norm :     0.0009409 Eh/α   predicted    -0.1208985E-04 ( -30.89%)
   displ. norm   :     0.0857114 α      lambda       -0.9701062E-05
   maximum displ.:     0.0415983 α      in ANC's #6, #3, #8, ...

........................................................................
.............................. CYCLE   27 ..............................
........................................................................

 iter      E             dE          RMSdq      gap      omega  full diag
   1   -120.6388481 -0.120639E+03  0.110E-02    2.43       0.0  T
   2   -120.6388482 -0.113127E-06  0.596E-03    2.43       1.8  T
   3   -120.6388480  0.148420E-06  0.192E-03    2.43       5.6  T
   4   -120.6388482 -0.151158E-06  0.860E-04    2.43      12.5  T
   5   -120.6388482 -0.311293E-07  0.375E-04    2.43      28.8  T
     SCC iter.                  ...        0 min,  0.709 sec
     gradient                   ...        0 min,  0.121 sec
 * total energy  :  -118.7069842 Eh     change       -0.1262596E-04 Eh
   gradient norm :     0.0008217 Eh/α   predicted    -0.4866677E-05 ( -61.45%)
   displ. norm   :     0.3974490 α      lambda       -0.4034389E-04
   maximum displ.:     0.1898273 α      in ANC's #6, #3, #2, ...

........................................................................
.............................. CYCLE   28 ..............................
........................................................................

 iter      E             dE          RMSdq      gap      omega  full diag
   1   -120.6373438 -0.120637E+03  0.495E-02    2.44       0.0  T
   2   -120.6373456 -0.180915E-05  0.265E-02    2.44       1.0  T
   3   -120.6373428  0.288628E-05  0.756E-03    2.44       1.4  T
   4   -120.6373451 -0.236317E-05  0.412E-03    2.44       2.6  T
   5   -120.6373462 -0.112116E-05  0.126E-03    2.44       8.6  T
   6   -120.6373463 -0.885930E-07  0.519E-04    2.44      20.8  T
   7   -120.6373463 -0.985848E-08  0.259E-04    2.44      41.6  T
     SCC iter.                  ...        0 min,  0.807 sec
     gradient                   ...        0 min,  0.125 sec
 * total energy  :  -118.7070177 Eh     change       -0.3350768E-04 Eh
   gradient norm :     0.0016616 Eh/α   predicted    -0.2158958E-04 ( -35.57%)
   displ. norm   :     0.2311758 α      lambda       -0.1920049E-04
   maximum displ.:     0.1132571 α      in ANC's #6, #3, #2, ...

........................................................................
.............................. CYCLE   29 ..............................
........................................................................

 iter      E             dE          RMSdq      gap      omega  full diag
   1   -120.6379190 -0.120638E+03  0.266E-02    2.44       0.0  T
   2   -120.6379197 -0.688257E-06  0.146E-02    2.44       1.0  T
   3   -120.6379183  0.134436E-05  0.516E-03    2.44       2.1  T
   4   -120.6379198 -0.142654E-05  0.209E-03    2.44       5.2  T
   5   -120.6379200 -0.184433E-06  0.934E-04    2.44      11.5  T
   6   -120.6379200 -0.588120E-07  0.309E-04    2.44      34.9  T
     SCC iter.                  ...        0 min,  0.688 sec
     gradient                   ...        0 min,  0.116 sec
 * total energy  :  -118.7070374 Eh     change       -0.1968243E-04 Eh
   gradient norm :     0.0011964 Eh/α   predicted    -0.9831282E-05 ( -50.05%)
   displ. norm   :     0.1665070 α      lambda       -0.1371129E-04
   maximum displ.:     0.0811983 α      in ANC's #6, #3, #2, ...

........................................................................
.............................. CYCLE   30 ..............................
........................................................................

 iter      E             dE          RMSdq      gap      omega  full diag
   1   -120.6387411 -0.120639E+03  0.169E-02    2.44       0.0  T
   2   -120.6387414 -0.287512E-06  0.948E-03    2.44       1.1  T
   3   -120.6387408  0.624259E-06  0.325E-03    2.44       3.3  T
   4   -120.6387414 -0.660639E-06  0.126E-03    2.44       8.5  T
   5   -120.6387415 -0.697437E-07  0.576E-04    2.44      18.7  T
   6   -120.6387415 -0.230371E-07  0.182E-04    2.44      59.3  T
     SCC iter.                  ...        0 min,  0.645 sec
     gradient                   ...        0 min,  0.114 sec
 * total energy  :  -118.7070536 Eh     change       -0.1616060E-04 Eh
   gradient norm :     0.0009006 Eh/α   predicted    -0.6942879E-05 ( -57.04%)
   displ. norm   :     0.2593958 α      lambda       -0.1847800E-04
   maximum displ.:     0.1281120 α      in ANC's #3, #6, #2, ...

........................................................................
.............................. CYCLE   31 ..............................
........................................................................

 iter      E             dE          RMSdq      gap      omega  full diag
   1   -120.6393654 -0.120639E+03  0.263E-02    2.44       0.0  T
   2   -120.6393660 -0.624170E-06  0.145E-02    2.44       1.0  T
   3   -120.6393648  0.125940E-05  0.470E-03    2.44       2.3  T
   4   -120.6393661 -0.130677E-05  0.203E-03    2.44       5.3  T
   5   -120.6393662 -0.174418E-06  0.858E-04    2.44      12.6  T
   6   -120.6393663 -0.552549E-07  0.234E-04    2.44      46.1  T
     SCC iter.                  ...        0 min,  0.769 sec
     gradient                   ...        0 min,  0.119 sec
 * total energy  :  -118.7070743 Eh     change       -0.2074289E-04 Eh
   gradient norm :     0.0010638 Eh/α   predicted    -0.9516930E-05 ( -54.12%)
   displ. norm   :     0.3208105 α      lambda       -0.1699050E-04
   maximum displ.:     0.1636192 α      in ANC's #3, #6, #2, ...

........................................................................
.............................. CYCLE   32 ..............................
........................................................................

 iter      E             dE          RMSdq      gap      omega  full diag
   1   -120.6390520 -0.120639E+03  0.326E-02    2.45       0.0  T
   2   -120.6390529 -0.899443E-06  0.176E-02    2.45       1.0  T
   3   -120.6390512  0.173376E-05  0.561E-03    2.45       1.9  T
   4   -120.6390529 -0.169982E-05  0.272E-03    2.45       4.0  T
   5   -120.6390533 -0.369521E-06  0.103E-03    2.45      10.5  T
   6   -120.6390534 -0.759047E-07  0.288E-04    2.45      37.5  T
   7   -120.6390534 -0.262669E-08  0.158E-04    2.45      68.3  T
     SCC iter.                  ...        0 min,  1.079 sec
     gradient                   ...        0 min,  0.121 sec
 * total energy  :  -118.7070927 Eh     change       -0.1833687E-04 Eh
   gradient norm :     0.0011480 Eh/α   predicted    -0.8887218E-05 ( -51.53%)
   displ. norm   :     0.2322926 α      lambda       -0.1265263E-04
   maximum displ.:     0.1235561 α      in ANC's #3, #6, #1, ...

........................................................................
.............................. CYCLE   33 ..............................
........................................................................

 iter      E             dE          RMSdq      gap      omega  full diag
   1   -120.6393360 -0.120639E+03  0.249E-02    2.45       0.0  T
   2   -120.6393366 -0.613343E-06  0.130E-02    2.45       1.0  T
   3   -120.6393359  0.674177E-06  0.403E-03    2.45       2.7  T
   4   -120.6393365 -0.604310E-06  0.221E-03    2.45       4.9  T
   5   -120.6393368 -0.254125E-06  0.757E-04    2.45      14.2  T
   6   -120.6393368 -0.427170E-07  0.231E-04    2.45      46.6  T
     SCC iter.                  ...        0 min,  0.732 sec
     gradient                   ...        0 min,  0.121 sec
 * total energy  :  -118.7071071 Eh     change       -0.1440837E-04 Eh
   gradient norm :     0.0011367 Eh/α   predicted    -0.6479430E-05 ( -55.03%)
   displ. norm   :     0.2162020 α      lambda       -0.1316218E-04
   maximum displ.:     0.1186051 α      in ANC's #3, #1, #6, ...

........................................................................
.............................. CYCLE   34 ..............................
........................................................................

 iter      E             dE          RMSdq      gap      omega  full diag
   1   -120.6390565 -0.120639E+03  0.230E-02    2.45       0.0  T
   2   -120.6390570 -0.525732E-06  0.121E-02    2.45       1.0  T
   3   -120.6390565  0.465451E-06  0.362E-03    2.45       3.0  T
   4   -120.6390569 -0.436727E-06  0.193E-03    2.45       5.6  T
   5   -120.6390571 -0.175240E-06  0.671E-04    2.45      16.1  T
   6   -120.6390572 -0.342155E-07  0.241E-04    2.45      44.8  T
     SCC iter.                  ...        0 min,  0.894 sec
     gradient                   ...        0 min,  0.121 sec
 * total energy  :  -118.7071220 Eh     change       -0.1494350E-04 Eh
   gradient norm :     0.0007039 Eh/α   predicted    -0.6722887E-05 ( -55.01%)
   displ. norm   :     0.1863775 α      lambda       -0.1189811E-04
   maximum displ.:     0.0993844 α      in ANC's #3, #1, #7, ...

........................................................................
.............................. CYCLE   35 ..............................
........................................................................

 iter      E             dE          RMSdq      gap      omega  full diag
   1   -120.6388996 -0.120639E+03  0.215E-02    2.45       0.0  T
   2   -120.6389000 -0.443462E-06  0.114E-02    2.45       1.0  T
   3   -120.6388996  0.356662E-06  0.334E-03    2.45       3.2  T
   4   -120.6389000 -0.380576E-06  0.162E-03    2.45       6.6  T
   5   -120.6389001 -0.971041E-07  0.550E-04    2.45      19.6  T
   6   -120.6389001 -0.241378E-07  0.209E-04    2.45      51.7  T
     SCC iter.                  ...        0 min,  0.746 sec
     gradient                   ...        0 min,  0.118 sec
 * total energy  :  -118.7071347 Eh     change       -0.1265796E-04 Eh
   gradient norm :     0.0005688 Eh/α   predicted    -0.6044559E-05 ( -52.25%)
   displ. norm   :     0.1448900 α      lambda       -0.7909507E-05
   maximum displ.:     0.0762477 α      in ANC's #3, #1, #7, ...

........................................................................
.............................. CYCLE   36 ..............................
........................................................................

 iter      E             dE          RMSdq      gap      omega  full diag
   1   -120.6385944 -0.120639E+03  0.160E-02    2.46       0.0  T
   2   -120.6385946 -0.217834E-06  0.867E-03    2.46       1.2  T
   3   -120.6385944  0.221864E-06  0.245E-03    2.46       4.4  T
   4   -120.6385947 -0.248345E-06  0.105E-03    2.46      10.3  T
   5   -120.6385947 -0.387550E-07  0.345E-04    2.46      31.3  T
   6   -120.6385947 -0.926831E-08  0.138E-04    2.46      78.1  T
     SCC iter.                  ...        0 min,  0.843 sec
     gradient                   ...        0 min,  0.117 sec
 * total energy  :  -118.7071434 Eh     change       -0.8714565E-05 Eh
   gradient norm :     0.0007704 Eh/α   predicted    -0.3994238E-05 ( -54.17%)
   displ. norm   :     0.1171274 α      lambda       -0.7121770E-05
   maximum displ.:     0.0575120 α      in ANC's #3, #7, #2, ...

........................................................................
.............................. CYCLE   37 ..............................
........................................................................

 iter      E             dE          RMSdq      gap      omega  full diag
   1   -120.6385320 -0.120639E+03  0.125E-02    2.46       0.0  T
   2   -120.6385322 -0.122109E-06  0.695E-03    2.46       1.6  T
   3   -120.6385320  0.155477E-06  0.187E-03    2.46       5.8  T
   4   -120.6385322 -0.174937E-06  0.733E-04    2.46      14.7  T
   5   -120.6385322 -0.191395E-07  0.249E-04    2.46      43.2  T
     SCC iter.                  ...        0 min,  0.573 sec
     gradient                   ...        0 min,  0.120 sec
 * total energy  :  -118.7071515 Eh     change       -0.8148982E-05 Eh
   gradient norm :     0.0006989 Eh/α   predicted    -0.3586616E-05 ( -55.99%)
   displ. norm   :     0.1342951 α      lambda       -0.7700662E-05
   maximum displ.:     0.0627435 α      in ANC's #3, #2, #7, ...

........................................................................
.............................. CYCLE   38 ..............................
........................................................................

 iter      E             dE          RMSdq      gap      omega  full diag
   1   -120.6385993 -0.120639E+03  0.131E-02    2.46       0.0  T
   2   -120.6385994 -0.143888E-06  0.743E-03    2.46       1.5  T
   3   -120.6385993  0.175167E-06  0.190E-03    2.46       5.7  T
   4   -120.6385995 -0.199575E-06  0.709E-04    2.46      15.2  T
   5   -120.6385995 -0.208116E-07  0.213E-04    2.46      50.6  T
     SCC iter.                  ...        0 min,  0.519 sec
     gradient                   ...        0 min,  0.118 sec
 * total energy  :  -118.7071596 Eh     change       -0.8106684E-05 Eh
   gradient norm :     0.0006423 Eh/α   predicted    -0.3884256E-05 ( -52.09%)
   displ. norm   :     0.1170112 α      lambda       -0.5552011E-05
   maximum displ.:     0.0594000 α      in ANC's #2, #3, #7, ...

........................................................................
.............................. CYCLE   39 ..............................
........................................................................

 iter      E             dE          RMSdq      gap      omega  full diag
   1   -120.6387535 -0.120639E+03  0.102E-02    2.46       0.0  T
   2   -120.6387536 -0.102758E-06  0.573E-03    2.46       1.9  T
   3   -120.6387535  0.913015E-07  0.154E-03    2.46       7.0  T
   4   -120.6387536 -0.104411E-06  0.641E-04    2.46      16.8  T
   5   -120.6387537 -0.151853E-07  0.216E-04    2.46      49.8  T
     SCC iter.                  ...        0 min,  0.559 sec
     gradient                   ...        0 min,  0.117 sec
 * total energy  :  -118.7071656 Eh     change       -0.5947279E-05 Eh
   gradient norm :     0.0005212 Eh/α   predicted    -0.2794698E-05 ( -53.01%)
   displ. norm   :     0.1182495 α      lambda       -0.5250736E-05
   maximum displ.:     0.0667467 α      in ANC's #2, #3, #1, ...

........................................................................
.............................. CYCLE   40 ..............................
........................................................................

 iter      E             dE          RMSdq      gap      omega  full diag
   1   -120.6389510 -0.120639E+03  0.977E-03    2.46       0.0  T
   2   -120.6389511 -0.852908E-07  0.555E-03    2.46       1.9  T
   3   -120.6389509  0.110968E-06  0.160E-03    2.46       6.7  T
   4   -120.6389511 -0.125482E-06  0.616E-04    2.46      17.5  T
   5   -120.6389511 -0.889331E-08  0.300E-04    2.46      35.9  T
     SCC iter.                  ...        0 min,  0.634 sec
     gradient                   ...        0 min,  0.117 sec
 * total energy  :  -118.7071711 Eh     change       -0.5539434E-05 Eh
   gradient norm :     0.0004925 Eh/α   predicted    -0.2645210E-05 ( -52.25%)
   displ. norm   :     0.0912070 α      lambda       -0.3976807E-05
   maximum displ.:     0.0533465 α      in ANC's #2, #1, #3, ...

........................................................................
.............................. CYCLE   41 ..............................
........................................................................

 iter      E             dE          RMSdq      gap      omega  full diag
   1   -120.6391222 -0.120639E+03  0.844E-03    2.46       0.0  T
   2   -120.6391222 -0.601952E-07  0.467E-03    2.46       2.3  T
   3   -120.6391222  0.381442E-07  0.114E-03    2.46       9.5  T
   4   -120.6391222 -0.325907E-07  0.630E-04    2.46      17.1  T
   5   -120.6391223 -0.184512E-07  0.232E-04    2.46      46.5  T
     SCC iter.                  ...        0 min,  0.577 sec
     gradient                   ...        0 min,  0.118 sec
 * total energy  :  -118.7071753 Eh     change       -0.4179390E-05 Eh
   gradient norm :     0.0004902 Eh/α   predicted    -0.1997896E-05 ( -52.20%)
   displ. norm   :     0.0727485 α      lambda       -0.2793356E-05
   maximum displ.:     0.0413907 α      in ANC's #2, #1, #3, ...

........................................................................
.............................. CYCLE   42 ..............................
........................................................................

 iter      E             dE          RMSdq      gap      omega  full diag
   1   -120.6390785 -0.120639E+03  0.764E-03    2.46       0.0  T
   2   -120.6390785 -0.316222E-07  0.435E-03    2.46       2.5  T
   3   -120.6390785  0.242395E-07  0.836E-04    2.46      12.9  T
   4   -120.6390785 -0.192551E-07  0.492E-04    2.46      21.9  T
     SCC iter.                  ...        0 min,  0.439 sec
     gradient                   ...        0 min,  0.117 sec
 * total energy  :  -118.7071784 Eh     change       -0.3074880E-05 Eh
   gradient norm :     0.0004396 Eh/α   predicted    -0.1401590E-05 ( -54.42%)
   displ. norm   :     0.0806380 α      lambda       -0.2638442E-05
   maximum displ.:     0.0436698 α      in ANC's #2, #1, #3, ...
 * RMSD in coord.:     0.2991155 α      energy gain  -0.3331901E-03 Eh

generating ANC from exact Hessian ...
Using Lindh-Hessian (1995)
 Shifting diagonal of input Hessian by    1.0078225914219800E-002
 Lowest  eigenvalues of input Hessian
    0.000000    0.010000    0.000000    0.000000    0.000000    0.000000
    0.000000    0.010191    0.010245    0.010288    0.010361    0.010454
    0.010702    0.010788    0.010850    0.011015    0.011187    0.011479
 Highest eigenvalues
    1.999122    2.002484    2.030012    2.076226    2.115619    2.127565


........................................................................
.............................. CYCLE   43 ..............................
........................................................................

 iter      E             dE          RMSdq      gap      omega  full diag
   1   -120.6389955 -0.120639E+03  0.886E-03    2.46       0.0  T
   2   -120.6389955 -0.428519E-07  0.499E-03    2.46       2.2  T
   3   -120.6389954  0.706760E-07  0.121E-03    2.46       8.9  T
   4   -120.6389955 -0.701091E-07  0.567E-04    2.46      19.0  T
   5   -120.6389955 -0.150647E-07  0.240E-04    2.46      44.9  T
     SCC iter.                  ...        0 min,  0.638 sec
     gradient                   ...        0 min,  0.119 sec
 * total energy  :  -118.7071812 Eh     change       -0.2814274E-05 Eh
   gradient norm :     0.0003672 Eh/α   predicted     0.0000000E+00 (-100.00%)
   displ. norm   :     0.0113116 α      lambda       -0.1385341E-06
   maximum displ.:     0.0048731 α      in ANC's #18, #6, #36, ...

........................................................................
.............................. CYCLE   44 ..............................
........................................................................

 iter      E             dE          RMSdq      gap      omega  full diag
   1   -120.6390706 -0.120639E+03  0.290E-03    2.46       0.0  T
   2   -120.6390706 -0.202945E-07  0.142E-03    2.46       7.6  T
   3   -120.6390706  0.361754E-08  0.526E-04    2.46      20.5  T
   4   -120.6390706 -0.513440E-08  0.265E-04    2.46      40.7  T
     SCC iter.                  ...        0 min,  0.299 sec
     gradient                   ...        0 min,  0.113 sec
 * total energy  :  -118.7071822 Eh     change       -0.1053339E-05 Eh
   gradient norm :     0.0002202 Eh/α   predicted    -0.5033900E-06 ( -52.21%)
   displ. norm   :     0.0388154 α      lambda       -0.2546964E-05
   maximum displ.:     0.0178331 α      in ANC's #6, #18, #36, ...

........................................................................
.............................. CYCLE   45 ..............................
........................................................................

 iter      E             dE          RMSdq      gap      omega  full diag
   1   -120.6391255 -0.120639E+03  0.758E-03    2.46       0.0  T
   2   -120.6391256 -0.899339E-07  0.408E-03    2.46       2.6  T
   3   -120.6391256  0.268170E-07  0.128E-03    2.46       8.4  T
   4   -120.6391256 -0.343073E-07  0.561E-04    2.46      19.2  T
   5   -120.6391256 -0.910792E-08  0.201E-04    2.46      53.7  T
     SCC iter.                  ...        0 min,  0.591 sec
     gradient                   ...        0 min,  0.119 sec
 * total energy  :  -118.7071835 Eh     change       -0.1241009E-05 Eh
   gradient norm :     0.0007390 Eh/α   predicted    -0.1277386E-05 (   2.93%)
   displ. norm   :     0.0163710 α      lambda       -0.1543686E-05
   maximum displ.:     0.0080370 α      in ANC's #6, #36, #1, ...

........................................................................
.............................. CYCLE   46 ..............................
........................................................................

 iter      E             dE          RMSdq      gap      omega  full diag
   1   -120.6390219 -0.120639E+03  0.412E-03    2.46       0.0  T
   2   -120.6390220 -0.468890E-07  0.206E-03    2.46       5.2  T
   3   -120.6390220  0.269458E-08  0.699E-04    2.46      15.4  T
   4   -120.6390220 -0.218864E-08  0.413E-04    2.46      26.1  T
     SCC iter.                  ...        0 min,  0.452 sec
     gradient                   ...        0 min,  0.115 sec
 * total energy  :  -118.7071846 Eh     change       -0.1158904E-05 Eh
   gradient norm :     0.0003460 Eh/α   predicted    -0.7744760E-06 ( -33.17%)
   displ. norm   :     0.0129602 α      lambda       -0.8189447E-06
   maximum displ.:     0.0068077 α      in ANC's #6, #1, #3, ...

........................................................................
.............................. CYCLE   47 ..............................
........................................................................

 iter      E             dE          RMSdq      gap      omega  full diag
   1   -120.6389627 -0.120639E+03  0.407E-03    2.46       0.0  T
   2   -120.6389627 -0.318674E-07  0.190E-03    2.46       5.7  T
   3   -120.6389627  0.703328E-08  0.645E-04    2.46      16.7  T
   4   -120.6389627 -0.969465E-08  0.327E-04    2.46      32.9  T
     SCC iter.                  ...        0 min,  0.444 sec
     gradient                   ...        0 min,  0.116 sec
 * total energy  :  -118.7071852 Eh     change       -0.6012005E-06 Eh
   gradient norm :     0.0002854 Eh/α   predicted    -0.4112395E-06 ( -31.60%)
   displ. norm   :     0.0192701 α      lambda       -0.8798218E-06
   maximum displ.:     0.0105269 α      in ANC's #6, #1, #4, ...

........................................................................
.............................. CYCLE   48 ..............................
........................................................................

 iter      E             dE          RMSdq      gap      omega  full diag
   1   -120.6389468 -0.120639E+03  0.354E-03    2.46       0.0  T
   2   -120.6389468 -0.163225E-07  0.193E-03    2.46       5.6  T
   3   -120.6389468  0.272717E-07  0.779E-04    2.46      13.8  T
   4   -120.6389468 -0.279293E-07  0.323E-04    2.46      33.4  T
     SCC iter.                  ...        0 min,  0.480 sec
     gradient                   ...        0 min,  0.118 sec
 * total energy  :  -118.7071862 Eh     change       -0.9610206E-06 Eh
   gradient norm :     0.0003434 Eh/α   predicted    -0.4413141E-06 ( -54.08%)
   displ. norm   :     0.0387714 α      lambda       -0.1140259E-05
   maximum displ.:     0.0216396 α      in ANC's #6, #1, #4, ...

........................................................................
.............................. CYCLE   49 ..............................
........................................................................

 iter      E             dE          RMSdq      gap      omega  full diag
   1   -120.6389792 -0.120639E+03  0.547E-03    2.46       0.0  T
   2   -120.6389793 -0.153727E-07  0.314E-03    2.46       3.4  T
   3   -120.6389792  0.357971E-07  0.791E-04    2.46      13.6  T
   4   -120.6389793 -0.342134E-07  0.333E-04    2.46      32.4  T
     SCC iter.                  ...        0 min,  0.418 sec
     gradient                   ...        0 min,  0.118 sec
 * total energy  :  -118.7071875 Eh     change       -0.1272109E-05 Eh
   gradient norm :     0.0002814 Eh/α   predicted    -0.5753806E-06 ( -54.77%)
   displ. norm   :     0.0459992 α      lambda       -0.9366617E-06
   maximum displ.:     0.0258159 α      in ANC's #6, #1, #4, ...

........................................................................
.............................. CYCLE   50 ..............................
........................................................................

 iter      E             dE          RMSdq      gap      omega  full diag
   1   -120.6390134 -0.120639E+03  0.613E-03    2.46       0.0  T
   2   -120.6390135 -0.777305E-08  0.359E-03    2.46       3.0  T
   3   -120.6390134  0.512247E-07  0.773E-04    2.46      13.9  T
   4   -120.6390135 -0.556872E-07  0.213E-04    2.46      50.6  T
     SCC iter.                  ...        0 min,  0.464 sec
     gradient                   ...        0 min,  0.116 sec
 * total energy  :  -118.7071886 Eh     change       -0.1138522E-05 Eh
   gradient norm :     0.0002096 Eh/α   predicted    -0.4735928E-06 ( -58.40%)
   displ. norm   :     0.0457812 α      lambda       -0.8679677E-06
   maximum displ.:     0.0261200 α      in ANC's #6, #1, #4, ...

........................................................................
.............................. CYCLE   51 ..............................
........................................................................

 iter      E             dE          RMSdq      gap      omega  full diag
   1   -120.6390390 -0.120639E+03  0.597E-03    2.46       0.0  T
   2   -120.6390390 -0.756097E-08  0.347E-03    2.46       3.1  T
   3   -120.6390389  0.327619E-07  0.663E-04    2.46      16.3  T
   4   -120.6390390 -0.357362E-07  0.215E-04    2.46      50.1  T
     SCC iter.                  ...        0 min,  0.426 sec
     gradient                   ...        0 min,  0.114 sec
 * total energy  :  -118.7071897 Eh     change       -0.1073097E-05 Eh
   gradient norm :     0.0001753 Eh/α   predicted    -0.4356638E-06 ( -59.40%)
   displ. norm   :     0.0494670 α      lambda       -0.8888192E-06
   maximum displ.:     0.0281185 α      in ANC's #6, #1, #4, ...

........................................................................
.............................. CYCLE   52 ..............................
........................................................................

 iter      E             dE          RMSdq      gap      omega  full diag
   1   -120.6390533 -0.120639E+03  0.647E-03    2.46       0.0  T
   2   -120.6390533 -0.921297E-08  0.376E-03    2.46       2.9  T
   3   -120.6390533  0.403872E-07  0.724E-04    2.46      14.9  T
   4   -120.6390533 -0.442574E-07  0.221E-04    2.46      48.7  T
     SCC iter.                  ...        0 min,  0.438 sec
     gradient                   ...        0 min,  0.115 sec
 * total energy  :  -118.7071908 Eh     change       -0.1095090E-05 Eh
   gradient norm :     0.0001672 Eh/α   predicted    -0.4471401E-06 ( -59.17%)
   displ. norm   :     0.0564148 α      lambda       -0.9055121E-06
   maximum displ.:     0.0318276 α      in ANC's #6, #1, #4, ...

........................................................................
.............................. CYCLE   53 ..............................
........................................................................

 iter      E             dE          RMSdq      gap      omega  full diag
   1   -120.6390381 -0.120639E+03  0.726E-03    2.46       0.0  T
   2   -120.6390381 -0.108997E-07  0.422E-03    2.46       2.6  T
   3   -120.6390380  0.449167E-07  0.772E-04    2.46      14.0  T
   4   -120.6390381 -0.490585E-07  0.248E-04    2.46      43.5  T
     SCC iter.                  ...        0 min,  0.461 sec
     gradient                   ...        0 min,  0.119 sec
 * total energy  :  -118.7071919 Eh     change       -0.1094728E-05 Eh
   gradient norm :     0.0001685 Eh/α   predicted    -0.4555280E-06 ( -58.39%)
   displ. norm   :     0.0667236 α      lambda       -0.9468636E-06
   maximum displ.:     0.0369162 α      in ANC's #6, #1, #4, ...

........................................................................
.............................. CYCLE   54 ..............................
........................................................................

 iter      E             dE          RMSdq      gap      omega  full diag
   1   -120.6390198 -0.120639E+03  0.859E-03    2.46       0.0  T
   2   -120.6390198 -0.119363E-07  0.501E-03    2.46       2.2  T
   3   -120.6390197  0.643548E-07  0.882E-04    2.46      12.2  T
   4   -120.6390198 -0.708512E-07  0.256E-04    2.46      42.1  T
     SCC iter.                  ...        0 min,  0.452 sec
     gradient                   ...        0 min,  0.117 sec
 * total energy  :  -118.7071930 Eh     change       -0.1138855E-05 Eh
   gradient norm :     0.0001706 Eh/α   predicted    -0.4763240E-06 ( -58.18%)
   displ. norm   :     0.0833943 α      lambda       -0.1115555E-05
   maximum displ.:     0.0454296 α      in ANC's #1, #6, #4, ...

........................................................................
.............................. CYCLE   55 ..............................
........................................................................

 iter      E             dE          RMSdq      gap      omega  full diag
   1   -120.6389983 -0.120639E+03  0.106E-02    2.46       0.0  T
   2   -120.6389983 -0.176838E-07  0.621E-03    2.46       1.7  T
   3   -120.6389982  0.959215E-07  0.108E-03    2.46      10.0  T
   4   -120.6389983 -0.104701E-06  0.326E-04    2.46      33.1  T
   5   -120.6389983 -0.298209E-08  0.163E-04    2.46      66.1  T
     SCC iter.                  ...        0 min,  0.630 sec
     gradient                   ...        0 min,  0.116 sec
 * total energy  :  -118.7071944 Eh     change       -0.1360205E-05 Eh
   gradient norm :     0.0001785 Eh/α   predicted    -0.5620392E-06 ( -58.68%)
   displ. norm   :     0.1137429 α      lambda       -0.1513439E-05
   maximum displ.:     0.0623841 α      in ANC's #1, #6, #4, ...

........................................................................
.............................. CYCLE   56 ..............................
........................................................................

 iter      E             dE          RMSdq      gap      omega  full diag
   1   -120.6389514 -0.120639E+03  0.144E-02    2.46       0.0  T
   2   -120.6389514 -0.411429E-07  0.838E-03    2.46       1.3  T
   3   -120.6389513  0.127124E-06  0.135E-03    2.46       8.0  T
   4   -120.6389514 -0.139216E-06  0.475E-04    2.46      22.7  T
   5   -120.6389515 -0.656074E-08  0.253E-04    2.46      42.6  T
     SCC iter.                  ...        0 min,  0.511 sec
     gradient                   ...        0 min,  0.116 sec
 * total energy  :  -118.7071961 Eh     change       -0.1751496E-05 Eh
   gradient norm :     0.0002050 Eh/α   predicted    -0.7652773E-06 ( -56.31%)
   displ. norm   :     0.1244269 α      lambda       -0.1552291E-05
   maximum displ.:     0.0692110 α      in ANC's #1, #6, #4, ...

........................................................................
.............................. CYCLE   57 ..............................
........................................................................

 iter      E             dE          RMSdq      gap      omega  full diag
   1   -120.6389525 -0.120639E+03  0.156E-02    2.46       0.0  T
   2   -120.6389526 -0.551127E-07  0.909E-03    2.46       1.2  T
   3   -120.6389524  0.151092E-06  0.148E-03    2.46       7.3  T
   4   -120.6389526 -0.159972E-06  0.560E-04    2.46      19.3  T
   5   -120.6389526 -0.139993E-07  0.263E-04    2.46      41.0  T
     SCC iter.                  ...        0 min,  0.624 sec
     gradient                   ...        0 min,  0.116 sec
 * total energy  :  -118.7071978 Eh     change       -0.1660140E-05 Eh
   gradient norm :     0.0002013 Eh/α   predicted    -0.7835153E-06 ( -52.80%)
   displ. norm   :     0.1244269 α      lambda        0.0000000E+00
   maximum displ.:     0.0692110 α      in ANC's #1, #6, #4, ...

........................................................................
.............................. CYCLE   58 ..............................
........................................................................

 iter      E             dE          RMSdq      gap      omega  full diag
   1   -120.6388343 -0.120639E+03  0.156E-02    2.45       0.0  T
   2   -120.6388344 -0.567857E-07  0.909E-03    2.45       1.2  T
   3   -120.6388342  0.154009E-06  0.149E-03    2.45       7.2  T
   4   -120.6388344 -0.165072E-06  0.548E-04    2.45      19.7  T
   5   -120.6388344 -0.122974E-07  0.269E-04    2.45      40.1  T
     SCC iter.                  ...        0 min,  0.649 sec
     gradient                   ...        0 min,  0.118 sec
 * total energy  :  -118.7071980 Eh     change       -0.1979495E-06 Eh
   gradient norm :     0.0003800 Eh/α   predicted    -0.2749276E-08 ( -98.61%)
   displ. norm   :     0.0306773 α      lambda       -0.9153618E-06
   maximum displ.:     0.0186738 α      in ANC's #6, #1, #4, ...

........................................................................
.............................. CYCLE   59 ..............................
........................................................................

 iter      E             dE          RMSdq      gap      omega  full diag
   1   -120.6390894 -0.120639E+03  0.446E-03    2.45       0.0  T
   2   -120.6390894 -0.890728E-08  0.261E-03    2.45       4.1  T
   3   -120.6390894  0.194544E-07  0.506E-04    2.45      21.3  T
   4   -120.6390894 -0.214585E-07  0.143E-04    2.45      75.5  T
     SCC iter.                  ...        0 min,  0.468 sec
     gradient                   ...        0 min,  0.119 sec
 * total energy  :  -118.7071989 Eh     change       -0.8613031E-06 Eh
   gradient norm :     0.0001703 Eh/α   predicted    -0.4602470E-06 ( -46.56%)
   displ. norm   :     0.0147551 α      lambda       -0.5114164E-06
   maximum displ.:     0.0070234 α      in ANC's #6, #5, #33, ...

........................................................................
.............................. CYCLE   60 ..............................
........................................................................

 iter      E             dE          RMSdq      gap      omega  full diag
   1   -120.6391193 -0.120639E+03  0.224E-03    2.45       0.0  T
   2   -120.6391193 -0.175990E-08  0.130E-03    2.45       8.3  T
   3   -120.6391193  0.422625E-08  0.240E-04    2.45      45.0  T
   4   -120.6391193 -0.409956E-08  0.108E-04    2.45      99.9  T
     SCC iter.                  ...        0 min,  0.436 sec
     gradient                   ...        0 min,  0.113 sec
 * total energy  :  -118.7071995 Eh     change       -0.6255574E-06 Eh
   gradient norm :     0.0001610 Eh/α   predicted    -0.2590579E-06 ( -58.59%)
   displ. norm   :     0.0257528 α      lambda       -0.7211707E-06
   maximum displ.:     0.0121028 α      in ANC's #6, #5, #33, ...

........................................................................
.............................. CYCLE   61 ..............................
........................................................................

 iter      E             dE          RMSdq      gap      omega  full diag
   1   -120.6390540 -0.120639E+03  0.390E-03    2.45       0.0  T
   2   -120.6390540 -0.565463E-08  0.225E-03    2.45       4.8  T
   3   -120.6390540  0.250974E-08  0.308E-04    2.45      35.0  T
   4   -120.6390540 -0.273970E-08  0.157E-04    2.45      68.7  T
     SCC iter.                  ...        0 min,  0.414 sec
[...]
    11   7 N        2.676    -0.149    24.234     7.311
    12   6 C        3.886     0.038    19.884     6.340
    13   6 C        3.754    -0.127    23.003     6.839
    14   6 C        3.753    -0.129    23.026     6.843
    15   6 C        3.925     0.086    19.098     6.211
    16   6 C        3.760    -0.120    22.842     6.813
    17   6 C        3.775    -0.129    22.998     6.833
    18   6 C        3.760    -0.123    22.913     6.824
    19   7 N        2.684    -0.131    23.846     7.253
    20   6 C        3.879    -0.030    21.067     6.526
    21   6 C        3.045     0.053    26.760     8.484
    22   6 C        2.916    -0.053    29.320     8.879
    23   6 C        2.918    -0.034    28.851     8.808
    24   6 C        2.987     0.012    27.751     8.641
    25   6 C        2.919    -0.031    28.774     8.796
    26   6 C        2.915    -0.023    28.571     8.765
    27   6 C        2.917    -0.023    28.571     8.765
    28   6 C        2.917    -0.032    28.800     8.800
    29   6 C        2.989     0.012    27.746     8.641
    30   6 C        2.978    -0.011    28.290     8.725
    31   6 C        2.978    -0.010    28.253     8.719
    32   6 C        3.155     0.054    26.500     8.418
    33   6 C        2.916    -0.049    29.207     8.862
    34   6 C        2.919    -0.031    28.770     8.796
    35   6 C        2.987     0.014    27.704     8.634
    36   6 C        2.920    -0.030    28.740     8.791
    37   6 C        2.915    -0.023    28.588     8.768
    38   6 C        2.916    -0.024    28.611     8.771
    39   6 C        2.917    -0.033    28.834     8.806
    40   6 C        2.989     0.013    27.721     8.637
    41   7 N        2.682    -0.126    23.732     7.235
    42   6 C        3.883    -0.041    21.247     6.553
    43   6 C        2.954    -0.050    29.247     8.870
    44   1 H        0.925     0.057     2.236     2.338
    45   1 H        0.925     0.051     2.309     2.376
    46   1 H        0.925     0.066     2.133     2.284
    47   1 H        0.926     0.052     2.294     2.369
    48   1 H        0.925     0.056     2.250     2.346
    49   1 H        0.925     0.048     2.347     2.396
    50   1 H        0.925     0.064     2.151     2.294
    51   1 H        0.926     0.042     2.420     2.433
    52   1 H        0.925     0.071     2.071     2.251
    53   1 H        0.925     0.053     2.285     2.364
    54   1 H        0.925     0.059     2.210     2.325
    55   1 H        0.925     0.069     2.099     2.265
    56   1 H        0.925     0.059     2.210     2.325
    57   1 H        0.925     0.064     2.149     2.292
    58   1 H        0.925     0.050     2.314     2.379
    59   1 H        0.925     0.052     2.298     2.370
    60   1 H        0.925     0.063     2.167     2.302
    61   1 H        0.925     0.041     2.435     2.440
    62   1 H        0.925     0.064     2.149     2.292
    63   1 H        0.925     0.056     2.241     2.341
    64   1 H        0.925     0.058     2.220     2.330
    65   1 H        0.925     0.067     2.124     2.279
    66   1 H        0.925     0.056     2.249     2.345
    67   1 H        0.925     0.048     2.340     2.392
    68   1 H        0.925     0.069     2.101     2.266
    69   1 H        0.924     0.049     2.333     2.389
    70   1 H        0.925     0.065     2.147     2.291
    71   1 H        0.926     0.039     2.468     2.457
    72   1 H        0.926     0.051     2.302     2.372
    73   1 H        0.926     0.047     2.360     2.402
    74   1 H        0.926     0.050     2.322     2.383
    75   1 H        0.926     0.047     2.355     2.400
    76   1 H        0.926     0.038     2.473     2.459
    77   1 H        0.926     0.045     2.386     2.416
    78   1 H        0.926     0.054     2.276     2.359
    79   1 H        0.926     0.048     2.346     2.395
    80   1 H        0.926     0.049     2.335     2.389
    81   1 H        0.926     0.043     2.405     2.425
    82   1 H        0.926     0.033     2.541     2.493
    83   1 H        0.925     0.070     2.083     2.257
    84   1 H        0.924     0.055     2.255     2.348
    85   1 H        0.925     0.074     2.039     2.233
    86   1 H        0.926     0.045     2.380     2.413

 Mol. C6AA /au·bohr⁶  :      92954.279020
 Mol. C8AA /au·bohr⁸  :    2465601.015271
 Mol. α(0) /au        :        485.443018


Wiberg/Mayer (AO) data.
largest (>0.10) Wiberg bond orders for each atom

 ---------------------------------------------------------------------------
     #   Z sym  total        # sym  WBO       # sym  WBO       # sym  WBO
 ---------------------------------------------------------------------------
     1   6 C    3.993 --     2 C    1.030    45 H    0.984    44 H    0.974
                            46 H    0.962
     2   6 C    3.988 --    43 C    1.406     3 C    1.405     1 C    1.030
     3   6 C    3.981 --     4 C    1.415     2 C    1.405    47 H    0.967
     4   6 C    3.988 --     3 C    1.415     6 C    1.399     5 C    1.029
                            43 C    0.100
     5   6 C    3.993 --     4 C    1.029    49 H    0.983    48 H    0.976
                            50 H    0.962
     6   6 C    3.988 --     7 C    1.405     4 C    1.399    51 H    0.962
     7   6 C    3.951 --     6 C    1.405    43 C    1.404     8 S    0.977
     8  16 S    2.388 --     9 S    1.176     7 C    0.977
     9  16 S    2.457 --     8 S    1.176    10 P    0.964
    10  15 P    5.066 --    11 N    1.259    41 N    1.188    19 N    1.185
                             9 S    0.964
    11   7 N    3.387 --    10 P    1.259    12 C    0.934    15 C    0.909
    12   6 C    3.956 --    13 C    1.008    14 C    1.005    52 H    0.950
                            11 N    0.934
    13   6 C    3.990 --    12 C    1.008    53 H    0.981    55 H    0.978
                            54 H    0.962
    14   6 C    3.991 --    12 C    1.005    57 H    0.980    58 H    0.979
                            56 H    0.967
    15   6 C    3.950 --    17 C    1.000    16 C    0.996    18 C    0.992
                            11 N    0.909
    16   6 C    3.991 --    15 C    0.996    59 H    0.980    60 H    0.979
                            61 H    0.978
    17   6 C    3.990 --    15 C    1.000    62 H    0.977    64 H    0.976
                            63 H    0.947
    18   6 C    3.987 --    15 C    0.992    67 H    0.979    65 H    0.977
                            66 H    0.977
    19   7 N    3.416 --    10 P    1.185    21 C    0.987    20 C    0.973
    20   6 C    3.963 --    68 H    0.976    19 N    0.973    69 H    0.971
                            70 H    0.961
    21   6 C    3.950 --    30 C    1.449    22 C    1.274    19 N    0.987
    22   6 C    3.985 --    23 C    1.558    21 C    1.274    71 H    0.963
    23   6 C    3.985 --    22 C    1.558    24 C    1.273    72 H    0.966
                            30 C    0.105
    24   6 C    3.988 --    25 C    1.281    23 C    1.273    29 C    1.255
    25   6 C    3.989 --    26 C    1.554    24 C    1.281    73 H    0.967
                            28 C    0.117
    26   6 C    3.985 --    25 C    1.554    27 C    1.323    74 H    0.969
    27   6 C    3.990 --    28 C    1.552    26 C    1.323    75 H    0.970
    28   6 C    3.989 --    27 C    1.552    29 C    1.285    76 H    0.965
                            25 C    0.117
    29   6 C    3.987 --    28 C    1.285    24 C    1.255    30 C    1.232
    30   6 C    3.985 --    21 C    1.449    29 C    1.232    31 C    1.031
                            23 C    0.105
    31   6 C    3.986 --    32 C    1.454    40 C    1.232    30 C    1.031
                            34 C    0.105
    32   6 C    3.951 --    31 C    1.454    33 C    1.284    41 N    0.977
    33   6 C    3.988 --    34 C    1.556    32 C    1.284    77 H    0.963
    34   6 C    3.985 --    33 C    1.556    35 C    1.273    78 H    0.966
                            31 C    0.105
    35   6 C    3.989 --    36 C    1.280    34 C    1.273    40 C    1.255
    36   6 C    3.988 --    37 C    1.555    35 C    1.280    79 H    0.967
                            39 C    0.117
    37   6 C    3.986 --    36 C    1.555    38 C    1.322    80 H    0.970
    38   6 C    3.990 --    39 C    1.552    37 C    1.322    81 H    0.970
    39   6 C    3.989 --    38 C    1.552    40 C    1.281    82 H    0.965
                            36 C    0.117
    40   6 C    3.987 --    39 C    1.281    35 C    1.255    31 C    1.232
    41   7 N    3.399 --    10 P    1.188    32 C    0.977    42 C    0.971
    42   6 C    3.961 --    85 H    0.977    84 H    0.972    41 N    0.971
                            83 H    0.963
    43   6 C    3.987 --     2 C    1.406     7 C    1.404    86 H    0.965
                             4 C    0.100
    44   1 H    0.996 --     1 C    0.974
    45   1 H    0.997 --     1 C    0.984
    46   1 H    0.995 --     1 C    0.962
    47   1 H    0.996 --     3 C    0.967
    48   1 H    0.996 --     5 C    0.976
    49   1 H    0.997 --     5 C    0.983
    50   1 H    0.996 --     5 C    0.962
    51   1 H    0.998 --     6 C    0.962
    52   1 H    0.993 --    12 C    0.950
    53   1 H    0.997 --    13 C    0.981
    54   1 H    0.996 --    13 C    0.962
    55   1 H    0.994 --    13 C    0.978
    56   1 H    0.996 --    14 C    0.967
    57   1 H    0.995 --    14 C    0.980
    58   1 H    0.997 --    14 C    0.979
    59   1 H    0.997 --    16 C    0.980
    60   1 H    0.995 --    16 C    0.979
    61   1 H    0.998 --    16 C    0.978
    62   1 H    0.995 --    17 C    0.977
    63   1 H    0.997 --    17 C    0.947
    64   1 H    0.997 --    17 C    0.976
    65   1 H    0.994 --    18 C    0.977
    66   1 H    0.997 --    18 C    0.977
    67   1 H    0.997 --    18 C    0.979
    68   1 H    0.995 --    20 C    0.976
    69   1 H    0.997 --    20 C    0.971
    70   1 H    0.995 --    20 C    0.961
    71   1 H    0.997 --    22 C    0.963
    72   1 H    0.996 --    23 C    0.966
    73   1 H    0.997 --    25 C    0.967
    74   1 H    0.997 --    26 C    0.969
    75   1 H    0.997 --    27 C    0.970
    76   1 H    0.998 --    28 C    0.965
    77   1 H    0.997 --    33 C    0.963
    78   1 H    0.996 --    34 C    0.966
    79   1 H    0.997 --    36 C    0.967
    80   1 H    0.997 --    37 C    0.970
    81   1 H    0.998 --    38 C    0.970
    82   1 H    0.998 --    39 C    0.965
    83   1 H    0.994 --    42 C    0.963
    84   1 H    0.997 --    42 C    0.972
    85   1 H    0.994 --    42 C    0.977
    86   1 H    0.997 --    43 C    0.965
 ---------------------------------------------------------------------------

Topologies differ in total number of bonds
Writing topology from bond orders to xtbtopo.mol

molecular dipole:
                 x           y           z       tot (Debye)
 q only:        0.506      -1.620       0.240
   full:        0.549      -1.391       0.340       3.897
molecular quadrupole (traceless):
                xx          xy          yy          xz          yz          zz
 q only:        1.970      -3.767      19.955      -0.282       4.196     -21.926
  q+dip:       -0.769      -5.315      17.152       2.860       3.582     -16.383
   full:        0.209      -2.410      19.923       1.872       2.081     -20.132

           -------------------------------------------------
          |                Geometry Summary                 |
           -------------------------------------------------

      molecular mass/u    :      624.8621270
   center of mass at/Å    :       -0.1558318       0.2547640      -0.2562982
  moments of inertia/u·Å² :        0.5677441E+04   0.6283977E+04   0.8270373E+04
rotational constants/cm⁻¹ :        0.2969231E-02   0.2682638E-02   0.2038316E-02

 * 86 selected distances

     #   Z          #   Z                                           value/Å
     2   6 C        3   6 C                                       1.3907984
     3   6 C        4   6 C                                       1.3892324
     4   6 C        6   6 C                                       1.3892774
     6   6 C        7   6 C                                       1.3837060
     8  16 S        9  16 S                                       2.0396709
     9  16 S       10  15 P                                       2.1508106 (max)
    10  15 P       11   7 N                                       1.6567867
    11   7 N       12   6 C                                       1.4819364
    12   6 C       13   6 C                                       1.5238471
    12   6 C       14   6 C                                       1.5269588
    15   6 C       16   6 C                                       1.5306753
    15   6 C       17   6 C                                       1.5272205
    15   6 C       18   6 C                                       1.5372495
    10  15 P       19   7 N                                       1.6685160
    19   7 N       20   6 C                                       1.4583421
    19   7 N       21   6 C                                       1.4238061
    21   6 C       22   6 C                                       1.4102710
    22   6 C       23   6 C                                       1.3641290
    23   6 C       24   6 C                                       1.4095851
    24   6 C       25   6 C                                       1.4099161
    25   6 C       26   6 C                                       1.3664644
    26   6 C       27   6 C                                       1.4028259
    27   6 C       28   6 C                                       1.3674011
    24   6 C       29   6 C                                       1.4190486
    28   6 C       29   6 C                                       1.4113567
    21   6 C       30   6 C                                       1.3778349
    29   6 C       30   6 C                                       1.4251986
    31   6 C       32   6 C                                       1.3775450
    32   6 C       33   6 C                                       1.4085089
    33   6 C       34   6 C                                       1.3642097
    34   6 C       35   6 C                                       1.4090279
    35   6 C       36   6 C                                       1.4101218
    36   6 C       37   6 C                                       1.3662987
    37   6 C       38   6 C                                       1.4028657
    38   6 C       39   6 C                                       1.3675894
    31   6 C       40   6 C                                       1.4249827
    35   6 C       40   6 C                                       1.4187308
    39   6 C       40   6 C                                       1.4126792
    10  15 P       41   7 N                                       1.6687963
    32   6 C       41   7 N                                       1.4331479
    41   7 N       42   6 C                                       1.4609746
     2   6 C       43   6 C                                       1.3882156
     7   6 C       43   6 C                                       1.3840726
     1   6 C       44   1 H                                       1.0878354
     1   6 C       45   1 H                                       1.0866913
     1   6 C       46   1 H                                       1.0895287
     3   6 C       47   1 H                                       1.0802591
     5   6 C       48   1 H                                       1.0876699
     5   6 C       49   1 H                                       1.0870464
     5   6 C       50   1 H                                       1.0897259
     6   6 C       51   1 H                                       1.0795054
    12   6 C       52   1 H                                       1.0890684
    13   6 C       53   1 H                                       1.0867515
    13   6 C       54   1 H                                       1.0865851
    13   6 C       55   1 H                                       1.0866138
    14   6 C       56   1 H                                       1.0852146
    14   6 C       57   1 H                                       1.0873262
    14   6 C       58   1 H                                       1.0868660
    16   6 C       59   1 H                                       1.0864135
    16   6 C       60   1 H                                       1.0866420
    16   6 C       61   1 H                                       1.0871402
    17   6 C       62   1 H                                       1.0879477
    17   6 C       63   1 H                                       1.0841458
    17   6 C       64   1 H                                       1.0852342
    18   6 C       65   1 H                                       1.0866277
    18   6 C       66   1 H                                       1.0862036
    18   6 C       67   1 H                                       1.0866928
    20   6 C       68   1 H                                       1.0897322
    20   6 C       69   1 H                                       1.0925404
    20   6 C       70   1 H                                       1.0895175
    22   6 C       71   1 H                                       1.0778626
    23   6 C       72   1 H                                       1.0792930
    25   6 C       73   1 H                                       1.0798239
    26   6 C       74   1 H                                       1.0790005
    27   6 C       75   1 H                                       1.0792410
    28   6 C       76   1 H                                       1.0791235
    33   6 C       77   1 H                                       1.0772601 (min)
    34   6 C       78   1 H                                       1.0789987
    36   6 C       79   1 H                                       1.0796284
    37   6 C       80   1 H                                       1.0789466
    38   6 C       81   1 H                                       1.0796329
    39   6 C       82   1 H                                       1.0798268
    42   6 C       83   1 H                                       1.0863746
    42   6 C       84   1 H                                       1.0926835
    42   6 C       85   1 H                                       1.0892401
    43   6 C       86   1 H                                       1.0804652

 * 6 distinct bonds (by element types)

   Z      Z             #   av. dist./Å        max./Å        min./Å
   1 H    6 C          43     1.0847192     1.0926835     1.0772601
   6 C    6 C          33     1.4150862     1.5372495     1.3641290
   6 C    7 N           5     1.4516414     1.4819364     1.4238061
   7 N   15 P           3     1.6646997     1.6687963     1.6567867
  15 P   16 S           1     2.1508106     2.1508106     2.1508106
  16 S   16 S           1     2.0396709     2.0396709     2.0396709


optimized geometry written to: xtbopt.xyz


           -------------------------------------------------
          | TOTAL ENERGY             -118.707202207702 Eh   |
          | GRADIENT NORM               0.000054331956 Eh/α |
          | HOMO-LUMO GAP               2.455590880411 eV   |
           -------------------------------------------------

------------------------------------------------------------------------
 * finished run on 2024/12/16 at 20:31:26.170     
------------------------------------------------------------------------
 total:
 * wall-time:     0 d,  0 h,  1 min,  7.474 sec
 *  cpu-time:     0 d,  0 h,  8 min, 53.189 sec
 * ratio c/w:     7.902 speedup
 SCF:
 * wall-time:     0 d,  0 h,  0 min,  2.637 sec
 *  cpu-time:     0 d,  0 h,  0 min, 20.949 sec
 * ratio c/w:     7.943 speedup
 ANC optimizer:
 * wall-time:     0 d,  0 h,  1 min,  4.670 sec
 *  cpu-time:     0 d,  0 h,  8 min, 30.966 sec
 * ratio c/w:     7.901 speedup

