      -----------------------------------------------------------      
     |                   =====================                   |     
     |                           x T B                           |     
     |                   =====================                   |     
     |                         S. Grimme                         |     
     |          Mulliken Center for Theoretical Chemistry        |     
     |                    University of Bonn                     |     
      -----------------------------------------------------------      

   * xtb version 6.7.1 (edcfbbe) compiled by 'conda@3ef47c1a292c' on 2024-11-25

   xtb is free software: you can redistribute it and/or modify it under
   the terms of the GNU Lesser General Public License as published by
   the Free Software Foundation, either version 3 of the License, or
   (at your option) any later version.
   
   xtb is distributed in the hope that it will be useful,
   but WITHOUT ANY WARRANTY; without even the implied warranty of
   MERCHANTABILITY or FITNESS FOR A PARTICULAR PURPOSE.  See the
   GNU Lesser General Public License for more details.
   
   Cite this work as:
   * C. Bannwarth, E. Caldeweyher, S. Ehlert, A. Hansen, P. Pracht,
     J. Seibert, S. Spicher, S. Grimme, WIREs Comput. Mol. Sci., 2020, 11,
     e01493. DOI: 10.1002/wcms.1493
   
   for GFN2-xTB:
   * C. Bannwarth, S. Ehlert and S. Grimme., J. Chem. Theory Comput., 2019,
     15, 1652-1671. DOI: 10.1021/acs.jctc.8b01176
   for GFN1-xTB:
   * S. Grimme, C. Bannwarth, P. Shushkov, J. Chem. Theory Comput., 2017,
     13, 1989-2009. DOI: 10.1021/acs.jctc.7b00118
   for GFN0-xTB:
   * P. Pracht, E. Caldeweyher, S. Ehlert, S. Grimme, ChemRxiv, 2019, preprint.
     DOI: 10.26434/chemrxiv.8326202.v1
   for GFN-FF:
   * S. Spicher and S. Grimme, Angew. Chem. Int. Ed., 2020, 59, 15665-15673.
     DOI: 10.1002/anie.202004239
   
   for ALPB and GBSA implicit solvation:
   * S. Ehlert, M. Stahn, S. Spicher, S. Grimme, J. Chem. Theory Comput.,
     2021, 17, 4250-4261. DOI: 10.1021/acs.jctc.1c00471
   
   for ddCOSMO and CPCM-X implicit solvation:
   * M. Stahn, S. Ehlert, S. Grimme, J. Phys. Chem. A,
     2023, XX, XXXX-XXXX. DOI: 10.1021/acs.jpca.3c04382
   
   for DFT-D4:
   * E. Caldeweyher, C. Bannwarth and S. Grimme, J. Chem. Phys., 2017,
     147, 034112. DOI: 10.1063/1.4993215
   * E. Caldeweyher, S. Ehlert, A. Hansen, H. Neugebauer, S. Spicher,
     C. Bannwarth and S. Grimme, J. Chem. Phys., 2019, 150, 154122.
     DOI: 10.1063/1.5090222
   * E. Caldeweyher, J.-M. Mewes, S. Ehlert and S. Grimme, Phys. Chem. Chem. Phys.
     2020, 22, 8499-8512. DOI: 10.1039/D0CP00502A
   
   for sTDA-xTB:
   * S. Grimme and C. Bannwarth, J. Chem. Phys., 2016, 145, 054103.
     DOI: 10.1063/1.4959605
   
   in the mass-spec context:
   * V. Asgeirsson, C. Bauer and S. Grimme, Chem. Sci., 2017, 8, 4879.
     DOI: 10.1039/c7sc00601b
   * J. Koopman and S. Grimme, ACS Omega 2019, 4, 12, 15120-15133.
     DOI: 10.1021/acsomega.9b02011
   
   for metadynamics refer to:
   * S. Grimme, J. Chem. Theory Comput., 2019, 155, 2847-2862
     DOI: 10.1021/acs.jctc.9b00143
   
   for SPH calculations refer to:
   * S. Spicher and S. Grimme, J. Chem. Theory Comput., 2021, 17, 1701-1714
     DOI: 10.1021/acs.jctc.0c01306
   
   for ONIOM refer to:
   * C. Plett, A. Katbashev, S. Ehlert, S. Grimme, M. Bursch,
     Phys. Chem. Chem. Phys., 2023, 25, 17860-17868. DOI: 10.1039/D3CP02178E
   
   for DIPRO refer to:
   * J. Kohn, N. Gildemeister, S. Grimme, D. Fazzi, A. Hansen,
     J. Chem. Phys., 2023, just accepted.
   
   for PTB refer to:
   * S. Grimme, M. Mueller, A. Hansen, J. Chem. Phys., 2023, 158, 124111.
     DOI: 10.1063/5.0137838
   
   with help from (in alphabetical order)
   P. Atkinson, C. Bannwarth, F. Bohle, G. Brandenburg, E. Caldeweyher
   M. Checinski, S. Dohm, S. Ehlert, S. Ehrlich, I. Gerasimov, C. Hölzer
   A. Katbashev, J. Kohn, J. Koopman, C. Lavigne, S. Lehtola, F. März, M. Müller,
   F. Musil, H. Neugebauer, J. Pisarek, C. Plett, P. Pracht, F. Pultar,
   J. Seibert, P. Shushkov, S. Spicher, M. Stahn, M. Steiner, T. Strunk,
   J. Stückrath, T. Rose, and J. Unsleber
   
 * started run on 2024/12/16 at 20:00:59.602     
   ID    Z sym.   atoms
    1    6 C      1, 3-12, 17-22, 24-29, 31, 32, 34-42
    2    8 O      2, 13, 30, 33
    3   15 P      14
    4   34 Se     15
    5   16 S      16
    6    7 N      23
    7    1 H      43-77

           -------------------------------------------------
          |                Calculation Setup                |
           -------------------------------------------------

          program call               : xtb --gfn2 --opt extreme -P 8 --charge 1 molecule.xyz
          hostname                   : node20
          coordinate file            : molecule.xyz
          omp threads                :                     8


           -------------------------------------------------
          |                 G F N 2 - x T B                 |
           -------------------------------------------------

        Reference                      10.1021/acs.jctc.8b01176
      * Hamiltonian:
        H0-scaling (s, p, d)           1.850000    2.230000    2.230000
        zeta-weighting                 0.500000
      * Dispersion:
        s8                             2.700000
        a1                             0.520000
        a2                             5.000000
        s9                             5.000000
      * Repulsion:
        kExp                           1.500000    1.000000
        rExp                           1.000000
      * Coulomb:
        alpha                          2.000000
        third order                    shell-resolved
        anisotropic                    true
        a3                             3.000000
        a5                             4.000000
        cn-shift                       1.200000
        cn-exp                         4.000000
        max-rad                        5.000000


          ...................................................
          :                      SETUP                      :
          :.................................................:
          :  # basis functions                 221          :
          :  # atomic orbitals                 218          :
          :  # shells                          122          :
          :  # electrons                       216          :
          :  max. iterations                   250          :
          :  Hamiltonian                  GFN2-xTB          :
          :  restarted?                      false          :
          :  GBSA solvation                  false          :
          :  PC potential                    false          :
          :  electronic temp.          300.0000000     K    :
          :  accuracy                    1.0000000          :
          :  -> integral cutoff          0.2500000E+02      :
          :  -> integral neglect         0.1000000E-07      :
          :  -> SCF convergence          0.1000000E-05 Eh   :
          :  -> wf. convergence          0.1000000E-03 e    :
          :  Broyden damping             0.4000000          :
          :  net charge                          1          :
          :  unpaired electrons                  0          :
          ...................................................

 iter      E             dE          RMSdq      gap      omega  full diag
   1   -119.8072710 -0.119807E+03  0.537E+00    1.17       0.0  T
   2   -119.9702610 -0.162990E+00  0.309E+00    2.01       1.0  T
   3   -119.9557599  0.145011E-01  0.137E+00    2.38       1.0  T
   4   -119.9909215 -0.351616E-01  0.670E-01    2.23       1.0  T
   5   -120.0021639 -0.112425E-01  0.321E-01    2.37       1.0  T
   6   -120.0050917 -0.292780E-02  0.165E-01    2.34       1.0  T
   7   -120.0055685 -0.476799E-03  0.101E-01    2.35       1.0  T
   8   -120.0060897 -0.521123E-03  0.488E-02    2.35       1.0  T
   9   -120.0061149 -0.252368E-04  0.342E-02    2.35       1.0  T
  10   -120.0061215 -0.663915E-05  0.142E-02    2.35       1.0  T
  11   -120.0061267 -0.518400E-05  0.794E-03    2.35       1.4  T
  12   -120.0061272 -0.518004E-06  0.273E-03    2.35       4.2  T
  13   -120.0061274 -0.129318E-06  0.126E-03    2.35       9.0  T
  14   -120.0061274 -0.196530E-07  0.670E-04    2.35      17.0  T
  15   -120.0061274 -0.108880E-07  0.319E-04    2.35      35.8  T

   *** convergence criteria satisfied after 15 iterations ***

         #    Occupation            Energy/Eh            Energy/eV
      -------------------------------------------------------------
         1        2.0000           -0.9455027             -25.7284
       ...           ...                  ...                  ...
       102        2.0000           -0.4994112             -13.5897
       103        2.0000           -0.4924401             -13.4000
       104        2.0000           -0.4811168             -13.0919
       105        2.0000           -0.4732200             -12.8770
       106        2.0000           -0.4664815             -12.6936
       107        2.0000           -0.4657054             -12.6725
       108        2.0000           -0.4641273             -12.6295 (HOMO)
       109                         -0.3776912             -10.2775 (LUMO)
       110                         -0.3622339              -9.8569
       111                         -0.3550778              -9.6622
       112                         -0.3338920              -9.0857
       113                         -0.3245222              -8.8307
       ...                                ...                  ...
       218                          7.2293981             196.7219
      -------------------------------------------------------------
                  HL-Gap            0.0864362 Eh            2.3520 eV
             Fermi-level           -0.4209092 Eh          -11.4535 eV

 SCC (total)                   0 d,  0 h,  0 min,  2.277 sec
 SCC setup                      ...        0 min,  0.000 sec (  0.017%)
 Dispersion                     ...        0 min,  0.002 sec (  0.069%)
 classical contributions        ...        0 min,  0.000 sec (  0.004%)
 integral evaluation            ...        0 min,  0.008 sec (  0.358%)
 iterations                     ...        0 min,  2.138 sec ( 93.889%)
 molecular gradient             ...        0 min,  0.113 sec (  4.971%)
 printout                       ...        0 min,  0.016 sec (  0.689%)

         :::::::::::::::::::::::::::::::::::::::::::::::::::::
         ::                     SUMMARY                     ::
         :::::::::::::::::::::::::::::::::::::::::::::::::::::
         :: total energy            -117.571990943871 Eh    ::
         :: gradient norm              3.497414158572 Eh/a0 ::
         :: HOMO-LUMO gap              2.352047532897 eV    ::
         ::.................................................::
         :: SCC energy              -120.002725753003 Eh    ::
         :: -> isotropic ES            0.132758262670 Eh    ::
         :: -> anisotropic ES         -0.002405392740 Eh    ::
         :: -> anisotropic XC          0.046375091573 Eh    ::
         :: -> dispersion             -0.112933284325 Eh    ::
         :: repulsion energy           2.430734809132 Eh    ::
         :: add. restraining           0.000000000000 Eh    ::
         :: total charge               1.000000000000 e     ::
         :::::::::::::::::::::::::::::::::::::::::::::::::::::

      ----------------------------------------------------------- 
     |                   =====================                   |
     |                        A N C O P T                        |
     |                   =====================                   |
     |               Approximate Normal Coordinate               |
     |                Rational Function Optimizer                |
      ----------------------------------------------------------- 
      ----------------------------------------------------------- 
     |                   =====================                   |
     |                        A N C O P T                        |
     |                   =====================                   |
     |               Approximate Normal Coordinate               |
     |                Rational Function Optimizer                |
      ----------------------------------------------------------- 

          ...................................................
          :                      SETUP                      :
          :.................................................:
          :   optimization level           extreme          :
          :   max. optcycles                  1540          :
          :   ANC micro-cycles                  20          :
          :   degrees of freedom               225          :
          :.................................................:
          :   RF solver                   davidson          :
          :   write xtbopt.log                true          :
          :   linear?                        false          :
          :   energy convergence         0.5000000E-07 Eh   :
          :   grad. convergence          0.5000000E-04 Eh/α :
          :   maxmium RF displ.          1.0000000          :
          :   Hlow (freq-cutoff)         0.1000000E-01      :
          :   Hmax (freq-cutoff)         5.0000000          :
          :   S6 in model hess.         20.0000000          :
          ...................................................

generating ANC from exact Hessian ...
Using Lindh-Hessian (1995)
 Shifting diagonal of input Hessian by    1.0628128575208303E-002
 Lowest  eigenvalues of input Hessian
    0.010000    0.000000    0.000000    0.000000    0.000000    0.000000
    0.000000    0.010722    0.010747    0.010838    0.010933    0.011128
    0.011270    0.011383    0.011433    0.011840    0.012253    0.012784
 Highest eigenvalues
    2.081522    2.133442    2.162323    2.244942    2.273627    2.905878


........................................................................
.............................. CYCLE    1 ..............................
........................................................................

 iter      E             dE          RMSdq      gap      omega  full diag
   1   -120.0061274 -0.120006E+03  0.151E-04    2.35       0.0  T
   2   -120.0061274 -0.202718E-09  0.105E-04    2.35     108.9  T
   3   -120.0061274 -0.195215E-09  0.706E-05    2.35     161.3  T
     SCC iter.                  ...        0 min,  0.297 sec
     gradient                   ...        0 min,  0.115 sec
 * total energy  :  -117.5719909 Eh     change       -0.2400441E-08 Eh
   gradient norm :     3.4974120 Eh/α   predicted     0.0000000E+00 (-100.00%)
   displ. norm   :     0.6838656 α      lambda       -0.2373793E+01
   maximum displ.:     0.6466154 α      in ANC's #225, #202, #190, ...

........................................................................
.............................. CYCLE    2 ..............................
........................................................................

 iter      E             dE          RMSdq      gap      omega  full diag
   1   -120.1407770 -0.120141E+03  0.187E+00    2.08       0.0  T
   2   -120.1486122 -0.783524E-02  0.953E-01    2.21       1.0  T
   3   -120.1483542  0.257983E-03  0.385E-01    2.33       1.0  T
   4   -120.1481654  0.188823E-03  0.221E-01    2.29       1.0  T
   5   -120.1499511 -0.178570E-02  0.836E-02    2.33       1.0  T
   6   -120.1500158 -0.646499E-04  0.445E-02    2.32       1.0  T
   7   -120.1500506 -0.348529E-04  0.303E-02    2.32       1.0  T
   8   -120.1500659 -0.152413E-04  0.188E-02    2.32       1.0  T
   9   -120.1500736 -0.773207E-05  0.112E-02    2.32       1.0  T
  10   -120.1500747 -0.114812E-05  0.490E-03    2.32       2.3  T
  11   -120.1500754 -0.621467E-06  0.294E-03    2.32       3.9  T
  12   -120.1500755 -0.100131E-06  0.145E-03    2.32       7.9  T
  13   -120.1500755 -0.233529E-07  0.511E-04    2.32      22.3  T
  14   -120.1500755 -0.766235E-08  0.212E-04    2.32      53.7  T
     SCC iter.                  ...        0 min,  2.157 sec
     gradient                   ...        0 min,  0.115 sec
 * total energy  :  -118.3270563 Eh     change       -0.7550654E+00 Eh
   gradient norm :     0.3917605 Eh/α   predicted    -0.1742236E+01 ( 130.74%)
   displ. norm   :     0.6025697 α      lambda       -0.2061079E+00
   maximum displ.:     0.2160582 α      in ANC's #141, #160, #49, ...

........................................................................
.............................. CYCLE    3 ..............................
........................................................................

 iter      E             dE          RMSdq      gap      omega  full diag
   1   -120.2145232 -0.120215E+03  0.754E-01    2.50       0.0  T
   2   -120.2162715 -0.174824E-02  0.419E-01    2.48       1.0  T
   3   -120.2157116  0.559837E-03  0.225E-01    2.38       1.0  T
   4   -120.2167757 -0.106407E-02  0.151E-01    2.37       1.0  T
   5   -120.2168725 -0.967689E-04  0.928E-02    2.35       1.0  T
   6   -120.2170761 -0.203609E-03  0.626E-02    2.37       1.0  T
   7   -120.2171524 -0.762791E-04  0.285E-02    2.36       1.0  T
   8   -120.2171639 -0.115726E-04  0.150E-02    2.36       1.0  T
   9   -120.2171676 -0.363376E-05  0.641E-03    2.36       1.8  T
  10   -120.2171682 -0.662720E-06  0.291E-03    2.36       3.9  T
  11   -120.2171684 -0.193750E-06  0.142E-03    2.36       8.1  T
  12   -120.2171685 -0.274926E-07  0.525E-04    2.36      21.7  T
  13   -120.2171685 -0.679429E-08  0.248E-04    2.36      45.9  T
     SCC iter.                  ...        0 min,  2.047 sec
     gradient                   ...        0 min,  0.114 sec
 * total energy  :  -118.4419904 Eh     change       -0.1149341E+00 Eh
   gradient norm :     0.1799512 Eh/α   predicted    -0.1404719E+00 (  22.22%)
   displ. norm   :     0.5862799 α      lambda       -0.7301582E-01
   maximum displ.:     0.1874954 α      in ANC's #49, #137, #1, ...

........................................................................
.............................. CYCLE    4 ..............................
........................................................................

 iter      E             dE          RMSdq      gap      omega  full diag
   1   -120.2562936 -0.120256E+03  0.572E-01    2.45       0.0  T
   2   -120.2568418 -0.548190E-03  0.279E-01    2.40       1.0  T
   3   -120.2565912  0.250590E-03  0.112E-01    2.38       1.0  T
   4   -120.2569620 -0.370852E-03  0.612E-02    2.38       1.0  T
   5   -120.2570236 -0.615839E-04  0.347E-02    2.38       1.0  T
   6   -120.2570534 -0.298297E-04  0.210E-02    2.38       1.0  T
   7   -120.2570540 -0.518231E-06  0.141E-02    2.38       1.0  T
   8   -120.2570593 -0.537423E-05  0.719E-03    2.38       1.6  T
   9   -120.2570598 -0.487606E-06  0.338E-03    2.38       3.4  T
  10   -120.2570601 -0.293832E-06  0.157E-03    2.38       7.3  T
  11   -120.2570601 -0.215416E-07  0.828E-04    2.38      13.8  T
  12   -120.2570601 -0.106188E-07  0.330E-04    2.38      34.6  T
     SCC iter.                  ...        0 min,  1.750 sec
     gradient                   ...        0 min,  0.116 sec
 * total energy  :  -118.4974043 Eh     change       -0.5541382E-01 Eh
   gradient norm :     0.0888943 Eh/α   predicted    -0.4905656E-01 ( -11.47%)
   displ. norm   :     0.6085850 α      lambda       -0.3729073E-01
   maximum displ.:     0.2672429 α      in ANC's #49, #39, #137, ...

........................................................................
.............................. CYCLE    5 ..............................
........................................................................

 iter      E             dE          RMSdq      gap      omega  full diag
   1   -120.2649826 -0.120265E+03  0.480E-01    2.45       0.0  T
   2   -120.2653481 -0.365509E-03  0.235E-01    2.40       1.0  T
   3   -120.2652783  0.698223E-04  0.872E-02    2.38       1.0  T
   4   -120.2653950 -0.116756E-03  0.461E-02    2.37       1.0  T
   5   -120.2654374 -0.423915E-04  0.245E-02    2.38       1.0  T
   6   -120.2654435 -0.612353E-05  0.151E-02    2.38       1.0  T
   7   -120.2654424  0.115104E-05  0.984E-03    2.38       1.2  T
   8   -120.2654451 -0.269915E-05  0.515E-03    2.38       2.2  T
   9   -120.2654455 -0.401294E-06  0.248E-03    2.38       4.6  T
  10   -120.2654457 -0.193110E-06  0.129E-03    2.38       8.8  T
  11   -120.2654457 -0.202556E-07  0.610E-04    2.38      18.7  T
  12   -120.2654457 -0.489104E-08  0.275E-04    2.38      41.5  T
     SCC iter.                  ...        0 min,  1.901 sec
     gradient                   ...        0 min,  0.115 sec
 * total energy  :  -118.5228999 Eh     change       -0.2549560E-01 Eh
   gradient norm :     0.0375018 Eh/α   predicted    -0.2555116E-01 (   0.22%)
   displ. norm   :     0.5741093 α      lambda       -0.1312469E-01
   maximum displ.:     0.2229860 α      in ANC's #49, #39, #27, ...

........................................................................
.............................. CYCLE    6 ..............................
........................................................................

 iter      E             dE          RMSdq      gap      omega  full diag
   1   -120.2630069 -0.120263E+03  0.234E-01    2.38       0.0  T
   2   -120.2630866 -0.796709E-04  0.119E-01    2.37       1.0  T
   3   -120.2630168  0.697769E-04  0.436E-02    2.36       1.0  T
   4   -120.2630841 -0.673152E-04  0.222E-02    2.37       1.0  T
   5   -120.2631090 -0.248955E-04  0.947E-03    2.37       1.2  T
   6   -120.2631108 -0.175776E-05  0.518E-03    2.37       2.2  T
   7   -120.2631114 -0.617212E-06  0.317E-03    2.37       3.6  T
   8   -120.2631115 -0.100222E-06  0.181E-03    2.37       6.3  T
   9   -120.2631115 -0.363261E-07  0.964E-04    2.37      11.8  T
  10   -120.2631115 -0.158982E-07  0.437E-04    2.37      26.1  T
     SCC iter.                  ...        0 min,  1.269 sec
     gradient                   ...        0 min,  0.121 sec
 * total energy  :  -118.5328079 Eh     change       -0.9908034E-02 Eh
   gradient norm :     0.0244083 Eh/α   predicted    -0.8725409E-02 ( -11.94%)
   displ. norm   :     0.6180577 α      lambda       -0.8007584E-02
   maximum displ.:     0.2219753 α      in ANC's #27, #26, #11, ...

........................................................................
.............................. CYCLE    7 ..............................
........................................................................

 iter      E             dE          RMSdq      gap      omega  full diag
   1   -120.2638888 -0.120264E+03  0.174E-01    2.33       0.0  T
   2   -120.2639237 -0.349111E-04  0.909E-02    2.32       1.0  T
   3   -120.2638573  0.663636E-04  0.365E-02    2.31       1.0  T
   4   -120.2639277 -0.703481E-04  0.159E-02    2.32       1.0  T
   5   -120.2639391 -0.114175E-04  0.647E-03    2.31       1.8  T
   6   -120.2639399 -0.810492E-06  0.322E-03    2.31       3.5  T
   7   -120.2639404 -0.518491E-06  0.130E-03    2.31       8.8  T
   8   -120.2639404 -0.408991E-08  0.835E-04    2.31      13.7  T
   9   -120.2639404 -0.807583E-08  0.411E-04    2.31      27.8  T
     SCC iter.                  ...        0 min,  1.198 sec
     gradient                   ...        0 min,  0.119 sec
 * total energy  :  -118.5391044 Eh     change       -0.6296497E-02 Eh
   gradient norm :     0.0177258 Eh/α   predicted    -0.5533223E-02 ( -12.12%)
   displ. norm   :     0.6537263 α      lambda       -0.5611395E-02
   maximum displ.:     0.2693016 α      in ANC's #11, #26, #27, ...

........................................................................
.............................. CYCLE    8 ..............................
........................................................................

 iter      E             dE          RMSdq      gap      omega  full diag
   1   -120.2696890 -0.120270E+03  0.155E-01    2.33       0.0  T
   2   -120.2697156 -0.265758E-04  0.854E-02    2.32       1.0  T
   3   -120.2696772  0.384070E-04  0.326E-02    2.31       1.0  T
   4   -120.2697112 -0.339988E-04  0.173E-02    2.31       1.0  T
   5   -120.2697258 -0.146146E-04  0.840E-03    2.31       1.4  T
   6   -120.2697269 -0.109675E-05  0.426E-03    2.31       2.7  T
   7   -120.2697273 -0.416153E-06  0.264E-03    2.31       4.3  T
   8   -120.2697273 -0.429709E-07  0.160E-03    2.31       7.1  T
   9   -120.2697274 -0.311435E-07  0.544E-04    2.31      20.9  T
  10   -120.2697274 -0.343917E-08  0.349E-04    2.31      32.6  T
     SCC iter.                  ...        0 min,  1.298 sec
     gradient                   ...        0 min,  0.114 sec
 * total energy  :  -118.5436187 Eh     change       -0.4514348E-02 Eh
   gradient norm :     0.0147956 Eh/α   predicted    -0.4004737E-02 ( -11.29%)
   displ. norm   :     0.6745494 α      lambda       -0.4135273E-02
   maximum displ.:     0.3381067 α      in ANC's #11, #26, #27, ...

........................................................................
.............................. CYCLE    9 ..............................
........................................................................

 iter      E             dE          RMSdq      gap      omega  full diag
   1   -120.2772238 -0.120277E+03  0.137E-01    2.34       0.0  T
   2   -120.2772446 -0.207425E-04  0.785E-02    2.33       1.0  T
   3   -120.2772226  0.220153E-04  0.282E-02    2.33       1.0  T
   4   -120.2772410 -0.184479E-04  0.156E-02    2.33       1.0  T
   5   -120.2772512 -0.102112E-04  0.820E-03    2.33       1.4  T
   6   -120.2772524 -0.118170E-05  0.416E-03    2.33       2.7  T
   7   -120.2772528 -0.394531E-06  0.259E-03    2.33       4.4  T
   8   -120.2772528 -0.447308E-07  0.150E-03    2.33       7.6  T
   9   -120.2772529 -0.300524E-07  0.574E-04    2.33      19.8  T
  10   -120.2772529 -0.585851E-08  0.356E-04    2.33      32.0  T
     SCC iter.                  ...        0 min,  1.454 sec
     gradient                   ...        0 min,  0.114 sec
 * total energy  :  -118.5469937 Eh     change       -0.3374941E-02 Eh
   gradient norm :     0.0130157 Eh/α   predicted    -0.3008458E-02 ( -10.86%)
   displ. norm   :     0.6941725 α      lambda       -0.3200077E-02
   maximum displ.:     0.4003484 α      in ANC's #11, #26, #13, ...

........................................................................
.............................. CYCLE   10 ..............................
........................................................................

 iter      E             dE          RMSdq      gap      omega  full diag
   1   -120.2837798 -0.120284E+03  0.120E-01    2.34       0.0  T
   2   -120.2837921 -0.123189E-04  0.697E-02    2.33       1.0  T
   3   -120.2837756  0.165233E-04  0.227E-02    2.33       1.0  T
   4   -120.2837911 -0.155755E-04  0.114E-02    2.33       1.0  T
   5   -120.2837962 -0.503204E-05  0.589E-03    2.33       1.9  T
   6   -120.2837969 -0.757229E-06  0.299E-03    2.33       3.8  T
   7   -120.2837972 -0.231160E-06  0.181E-03    2.33       6.3  T
   8   -120.2837972 -0.104069E-07  0.107E-03    2.33      10.7  T
   9   -120.2837972 -0.195587E-07  0.457E-04    2.33      24.9  T
  10   -120.2837972 -0.535613E-08  0.267E-04    2.33      42.7  T
     SCC iter.                  ...        0 min,  1.369 sec
     gradient                   ...        0 min,  0.114 sec
 * total energy  :  -118.5496786 Eh     change       -0.2684974E-02 Eh
   gradient norm :     0.0123080 Eh/α   predicted    -0.2371058E-02 ( -11.69%)
   displ. norm   :     0.7188408 α      lambda       -0.2746290E-02
   maximum displ.:     0.4502662 α      in ANC's #11, #13, #10, ...

........................................................................
.............................. CYCLE   11 ..............................
........................................................................

 iter      E             dE          RMSdq      gap      omega  full diag
   1   -120.2881804 -0.120288E+03  0.109E-01    2.34       0.0  T
   2   -120.2881871 -0.670955E-05  0.638E-02    2.33       1.0  T
   3   -120.2881698  0.173547E-04  0.192E-02    2.33       1.0  T
   4   -120.2881888 -0.190556E-04  0.636E-03    2.33       1.8  T
   5   -120.2881901 -0.126286E-05  0.328E-03    2.33       3.5  T
   6   -120.2881905 -0.381348E-06  0.160E-03    2.33       7.1  T
   7   -120.2881906 -0.104149E-06  0.784E-04    2.33      14.5  T
   8   -120.2881906 -0.260397E-08  0.528E-04    2.33      21.6  T
     SCC iter.                  ...        0 min,  1.115 sec
     gradient                   ...        0 min,  0.118 sec
 * total energy  :  -118.5520569 Eh     change       -0.2378208E-02 Eh
   gradient norm :     0.0120510 Eh/α   predicted    -0.2082694E-02 ( -12.43%)
   displ. norm   :     0.7184519 α      lambda       -0.2464946E-02
   maximum displ.:     0.4640451 α      in ANC's #11, #10, #13, ...

........................................................................
.............................. CYCLE   12 ..............................
........................................................................

 iter      E             dE          RMSdq      gap      omega  full diag
   1   -120.2905171 -0.120291E+03  0.108E-01    2.32       0.0  T
   2   -120.2905217 -0.458715E-05  0.629E-02    2.32       1.0  T
   3   -120.2905060  0.156986E-04  0.166E-02    2.32       1.0  T
   4   -120.2905238 -0.178108E-04  0.455E-03    2.32       2.5  T
   5   -120.2905242 -0.375176E-06  0.266E-03    2.32       4.3  T
   6   -120.2905244 -0.223616E-06  0.151E-03    2.32       7.6  T
   7   -120.2905245 -0.707105E-07  0.748E-04    2.32      15.2  T
   8   -120.2905245 -0.731531E-08  0.454E-04    2.32      25.1  T
     SCC iter.                  ...        0 min,  1.130 sec
     gradient                   ...        0 min,  0.118 sec
 * total energy  :  -118.5542216 Eh     change       -0.2164708E-02 Eh
   gradient norm :     0.0118505 Eh/α   predicted    -0.1868644E-02 ( -13.68%)
   displ. norm   :     0.7355016 α      lambda       -0.2242879E-02
   maximum displ.:     0.4838772 α      in ANC's #11, #10, #4, ...

........................................................................
.............................. CYCLE   13 ..............................
........................................................................

 iter      E             dE          RMSdq      gap      omega  full diag
   1   -120.2912146 -0.120291E+03  0.116E-01    2.30       0.0  T
   2   -120.2912193 -0.470202E-05  0.673E-02    2.29       1.0  T
   3   -120.2912069  0.123671E-04  0.153E-02    2.29       1.0  T
   4   -120.2912208 -0.138370E-04  0.646E-03    2.29       1.8  T
   5   -120.2912217 -0.879886E-06  0.370E-03    2.29       3.1  T
   6   -120.2912220 -0.326526E-06  0.224E-03    2.29       5.1  T
   7   -120.2912221 -0.910750E-07  0.126E-03    2.29       9.1  T
   8   -120.2912221 -0.239445E-07  0.631E-04    2.29      18.1  T
   9   -120.2912221 -0.476943E-08  0.318E-04    2.29      35.8  T
     SCC iter.                  ...        0 min,  1.178 sec
     gradient                   ...        0 min,  0.120 sec
 * total energy  :  -118.5561770 Eh     change       -0.1955401E-02 Eh
   gradient norm :     0.0118462 Eh/α   predicted    -0.1728097E-02 ( -11.62%)
   displ. norm   :     0.7448426 α      lambda       -0.1940516E-02
   maximum displ.:     0.4926068 α      in ANC's #11, #10, #4, ...

........................................................................
.............................. CYCLE   14 ..............................
........................................................................

 iter      E             dE          RMSdq      gap      omega  full diag
   1   -120.2909613 -0.120291E+03  0.118E-01    2.28       0.0  T
   2   -120.2909663 -0.501154E-05  0.684E-02    2.27       1.0  T
   3   -120.2909561  0.101825E-04  0.152E-02    2.27       1.0  T
   4   -120.2909673 -0.112307E-04  0.713E-03    2.27       1.6  T
   5   -120.2909686 -0.126601E-05  0.374E-03    2.27       3.0  T
   6   -120.2909689 -0.287909E-06  0.227E-03    2.27       5.0  T
   7   -120.2909690 -0.752097E-07  0.135E-03    2.27       8.4  T
   8   -120.2909690 -0.369355E-07  0.684E-04    2.27      16.7  T
   9   -120.2909690 -0.796129E-08  0.339E-04    2.27      33.6  T
     SCC iter.                  ...        0 min,  1.322 sec
     gradient                   ...        0 min,  0.113 sec
 * total energy  :  -118.5578663 Eh     change       -0.1689370E-02 Eh
   gradient norm :     0.0122745 Eh/α   predicted    -0.1508554E-02 ( -10.70%)
   displ. norm   :     0.7497769 α      lambda       -0.1741261E-02
   maximum displ.:     0.4962244 α      in ANC's #11, #10, #4, ...

........................................................................
.............................. CYCLE   15 ..............................
........................................................................

 iter      E             dE          RMSdq      gap      omega  full diag
   1   -120.2921167 -0.120292E+03  0.118E-01    2.27       0.0  T
   2   -120.2921229 -0.627176E-05  0.680E-02    2.26       1.0  T
   3   -120.2921140  0.896242E-05  0.159E-02    2.26       1.0  T
   4   -120.2921241 -0.101697E-04  0.704E-03    2.26       1.6  T
   5   -120.2921253 -0.120490E-05  0.347E-03    2.26       3.3  T
   6   -120.2921256 -0.213889E-06  0.201E-03    2.26       5.7  T
   7   -120.2921256 -0.549616E-07  0.124E-03    2.26       9.2  T
   8   -120.2921256 -0.281951E-07  0.727E-04    2.26      15.7  T
   9   -120.2921256 -0.120544E-07  0.327E-04    2.26      34.8  T
     SCC iter.                  ...        0 min,  1.314 sec
     gradient                   ...        0 min,  0.114 sec
 * total energy  :  -118.5593706 Eh     change       -0.1504287E-02 Eh
   gradient norm :     0.0111712 Eh/α   predicted    -0.1360070E-02 (  -9.59%)
   displ. norm   :     0.7895298 α      lambda       -0.1700630E-02
   maximum displ.:     0.5001953 α      in ANC's #11, #10, #8, ...

........................................................................
.............................. CYCLE   16 ..............................
........................................................................

 iter      E             dE          RMSdq      gap      omega  full diag
   1   -120.2894741 -0.120289E+03  0.121E-01    2.27       0.0  T
   2   -120.2894866 -0.124771E-04  0.700E-02    2.26       1.0  T
   3   -120.2894783  0.829560E-05  0.169E-02    2.26       1.0  T
   4   -120.2894881 -0.980916E-05  0.695E-03    2.25       1.6  T
   5   -120.2894895 -0.142480E-05  0.323E-03    2.25       3.5  T
   6   -120.2894897 -0.127521E-06  0.165E-03    2.25       6.9  T
   7   -120.2894897 -0.587382E-07  0.929E-04    2.25      12.3  T
   8   -120.2894897 -0.481089E-08  0.559E-04    2.25      20.4  T
     SCC iter.                  ...        0 min,  1.109 sec
     gradient                   ...        0 min,  0.115 sec
 * total energy  :  -118.5606030 Eh     change       -0.1232426E-02 Eh
   gradient norm :     0.0167852 Eh/α   predicted    -0.1380370E-02 (  12.00%)
   displ. norm   :     0.6579320 α      lambda       -0.1794194E-02
   maximum displ.:     0.4110574 α      in ANC's #11, #10, #8, ...

........................................................................
.............................. CYCLE   17 ..............................
........................................................................

 iter      E             dE          RMSdq      gap      omega  full diag
   1   -120.2994300 -0.120299E+03  0.111E-01    2.27       0.0  T
   2   -120.2994465 -0.164756E-04  0.638E-02    2.26       1.0  T
   3   -120.2994404  0.615170E-05  0.173E-02    2.25       1.0  T
   4   -120.2994477 -0.732379E-05  0.684E-03    2.25       1.7  T
   5   -120.2994491 -0.146047E-05  0.339E-03    2.25       3.4  T
   6   -120.2994494 -0.219072E-06  0.160E-03    2.25       7.1  T
   7   -120.2994494 -0.915006E-07  0.819E-04    2.25      13.9  T
   8   -120.2994495 -0.132309E-07  0.491E-04    2.25      23.2  T
     SCC iter.                  ...        0 min,  1.074 sec
     gradient                   ...        0 min,  0.115 sec
 * total energy  :  -118.5618316 Eh     change       -0.1228582E-02 Eh
   gradient norm :     0.0102749 Eh/α   predicted    -0.1285428E-02 (   4.63%)
   displ. norm   :     0.7068613 α      lambda       -0.1151023E-02
   maximum displ.:     0.4273899 α      in ANC's #11, #10, #8, ...

........................................................................
.............................. CYCLE   18 ..............................
........................................................................

 iter      E             dE          RMSdq      gap      omega  full diag
   1   -120.2914545 -0.120291E+03  0.106E-01    2.26       0.0  T
   2   -120.2914644 -0.987197E-05  0.610E-02    2.25       1.0  T
   3   -120.2914576  0.673680E-05  0.154E-02    2.25       1.0  T
   4   -120.2914647 -0.704242E-05  0.636E-03    2.24       1.8  T
   5   -120.2914667 -0.205877E-05  0.246E-03    2.24       4.6  T
   6   -120.2914668 -0.879572E-07  0.133E-03    2.24       8.6  T
   7   -120.2914669 -0.525732E-07  0.603E-04    2.24      18.9  T
   8   -120.2914669 -0.476425E-08  0.374E-04    2.24      30.5  T
     SCC iter.                  ...        0 min,  0.837 sec
     gradient                   ...        0 min,  0.126 sec
 * total energy  :  -118.5626556 Eh     change       -0.8239717E-03 Eh
   gradient norm :     0.0105656 Eh/α   predicted    -0.8630744E-03 (   4.75%)
   displ. norm   :     0.6353003 α      lambda       -0.1107561E-02
   maximum displ.:     0.3450325 α      in ANC's #11, #10, #5, ...

........................................................................
.............................. CYCLE   19 ..............................
........................................................................

 iter      E             dE          RMSdq      gap      omega  full diag
   1   -120.2969303 -0.120297E+03  0.978E-02    2.26       0.0  T
   2   -120.2969390 -0.863786E-05  0.561E-02    2.25       1.0  T
   3   -120.2969346  0.441637E-05  0.134E-02    2.25       1.0  T
   4   -120.2969383 -0.373246E-05  0.628E-03    2.24       1.8  T
   5   -120.2969406 -0.227993E-05  0.297E-03    2.24       3.8  T
   6   -120.2969409 -0.289766E-06  0.154E-03    2.24       7.4  T
   7   -120.2969409 -0.596248E-07  0.772E-04    2.24      14.8  T
   8   -120.2969409 -0.464800E-08  0.440E-04    2.24      25.9  T
     SCC iter.                  ...        0 min,  0.993 sec
     gradient                   ...        0 min,  0.114 sec
 * total energy  :  -118.5633745 Eh     change       -0.7189211E-03 Eh
   gradient norm :     0.0124811 Eh/α   predicted    -0.7772916E-03 (   8.12%)
   displ. norm   :     0.5159180 α      lambda       -0.9072758E-03
   maximum displ.:     0.2340173 α      in ANC's #10, #11, #17, ...

........................................................................
.............................. CYCLE   20 ..............................
........................................................................

 iter      E             dE          RMSdq      gap      omega  full diag
   1   -120.3028326 -0.120303E+03  0.865E-02    2.26       0.0  T
   2   -120.3028397 -0.711819E-05  0.498E-02    2.25       1.0  T
   3   -120.3028360  0.374166E-05  0.126E-02    2.25       1.0  T
   4   -120.3028392 -0.321194E-05  0.613E-03    2.25       1.9  T
   5   -120.3028411 -0.187581E-05  0.281E-03    2.25       4.1  T
   6   -120.3028413 -0.207039E-06  0.158E-03    2.25       7.2  T
   7   -120.3028414 -0.596997E-07  0.855E-04    2.25      13.3  T
   8   -120.3028414 -0.753586E-08  0.438E-04    2.25      26.0  T
     SCC iter.                  ...        0 min,  1.135 sec
     gradient                   ...        0 min,  0.114 sec
 * total energy  :  -118.5639258 Eh     change       -0.5512445E-03 Eh
   gradient norm :     0.0123276 Eh/α   predicted    -0.5743849E-03 (   4.20%)
   displ. norm   :     0.4981989 α      lambda       -0.7961267E-03
   maximum displ.:     0.2677990 α      in ANC's #10, #11, #5, ...
 * RMSD in coord.:     1.1053718 α      energy gain  -0.9919348E+00 Eh

generating ANC from exact Hessian ...
Using Lindh-Hessian (1995)
 Shifting diagonal of input Hessian by    1.0148153301060139E-002
 Lowest  eigenvalues of input Hessian
    0.010000    0.000000    0.000000    0.000000    0.000000    0.000000
    0.000000    0.010185    0.010208    0.010391    0.010465    0.010498
    0.010534    0.010627    0.010680    0.010839    0.011219    0.011472
 Highest eigenvalues
    2.025835    2.083303    2.107257    2.152681    2.190528    2.230236


........................................................................
.............................. CYCLE   21 ..............................
........................................................................

 iter      E             dE          RMSdq      gap      omega  full diag
   1   -120.3050200 -0.120305E+03  0.792E-02    2.26       0.0  T
   2   -120.3050266 -0.663335E-05  0.445E-02    2.26       1.0  T
   3   -120.3050244  0.223715E-05  0.109E-02    2.26       1.0  T
   4   -120.3050258 -0.139833E-05  0.590E-03    2.26       1.9  T
   5   -120.3050278 -0.201904E-05  0.250E-03    2.26       4.6  T
   6   -120.3050279 -0.146031E-06  0.144E-03    2.26       7.9  T
   7   -120.3050280 -0.467589E-07  0.823E-04    2.26      13.8  T
   8   -120.3050280 -0.559950E-08  0.454E-04    2.26      25.1  T
     SCC iter.                  ...        0 min,  1.041 sec
     gradient                   ...        0 min,  0.119 sec
 * total energy  :  -118.5643917 Eh     change       -0.4659241E-03 Eh
   gradient norm :     0.0124250 Eh/α   predicted     0.0000000E+00 (-100.00%)
   displ. norm   :     0.1429278 α      lambda       -0.5808905E-03
   maximum displ.:     0.0646196 α      in ANC's #13, #1, #9, ...

........................................................................
.............................. CYCLE   22 ..............................
........................................................................

 iter      E             dE          RMSdq      gap      omega  full diag
   1   -120.3019003 -0.120302E+03  0.681E-02    2.25       0.0  T
   2   -120.3019062 -0.589385E-05  0.362E-02    2.25       1.0  T
   3   -120.3019048  0.142261E-05  0.137E-02    2.25       1.0  T
   4   -120.3019060 -0.123249E-05  0.894E-03    2.25       1.3  T
   5   -120.3019080 -0.198608E-05  0.333E-03    2.25       3.4  T
   6   -120.3019081 -0.102209E-06  0.181E-03    2.25       6.3  T
   7   -120.3019082 -0.527664E-07  0.118E-03    2.25       9.7  T
   8   -120.3019082 -0.181697E-07  0.542E-04    2.25      21.0  T
   9   -120.3019082 -0.843603E-08  0.335E-04    2.25      34.0  T
     SCC iter.                  ...        0 min,  1.437 sec
     gradient                   ...        0 min,  0.114 sec
 * total energy  :  -118.5647779 Eh     change       -0.3862407E-03 Eh
   gradient norm :     0.0057711 Eh/α   predicted    -0.2964468E-03 ( -23.25%)
   displ. norm   :     0.2502235 α      lambda       -0.4897079E-03
   maximum displ.:     0.1442467 α      in ANC's #13, #1, #9, ...

........................................................................
.............................. CYCLE   23 ..............................
........................................................................

 iter      E             dE          RMSdq      gap      omega  full diag
   1   -120.2992352 -0.120299E+03  0.749E-02    2.25       0.0  T
   2   -120.2992404 -0.515365E-05  0.348E-02    2.25       1.0  T
   3   -120.2992401  0.286286E-06  0.801E-03    2.25       1.4  T
   4   -120.2992406 -0.453582E-06  0.489E-03    2.25       2.3  T
   5   -120.2992414 -0.805530E-06  0.140E-03    2.25       8.1  T
   6   -120.2992414 -0.488924E-07  0.584E-04    2.25      19.5  T
   7   -120.2992414 -0.126550E-07  0.347E-04    2.25      32.9  T
     SCC iter.                  ...        0 min,  0.897 sec
     gradient                   ...        0 min,  0.118 sec
 * total energy  :  -118.5651162 Eh     change       -0.3382480E-03 Eh
   gradient norm :     0.0058192 Eh/α   predicted    -0.2601855E-03 ( -23.08%)
   displ. norm   :     0.3700925 α      lambda       -0.4999392E-03
   maximum displ.:     0.2197955 α      in ANC's #13, #1, #9, ...

........................................................................
.............................. CYCLE   24 ..............................
........................................................................

 iter      E             dE          RMSdq      gap      omega  full diag
   1   -120.2972412 -0.120297E+03  0.664E-02    2.24       0.0  T
   2   -120.2972439 -0.276073E-05  0.345E-02    2.24       1.0  T
   3   -120.2972416  0.234099E-05  0.102E-02    2.24       1.1  T
   4   -120.2972441 -0.252440E-05  0.505E-03    2.24       2.3  T
   5   -120.2972449 -0.756852E-06  0.170E-03    2.24       6.7  T
   6   -120.2972449 -0.840021E-07  0.732E-04    2.24      15.6  T
   7   -120.2972450 -0.136785E-07  0.481E-04    2.24      23.7  T
     SCC iter.                  ...        0 min,  0.912 sec
     gradient                   ...        0 min,  0.115 sec
 * total energy  :  -118.5654705 Eh     change       -0.3543258E-03 Eh
   gradient norm :     0.0107669 Eh/α   predicted    -0.2842090E-03 ( -19.79%)
   displ. norm   :     0.4112568 α      lambda       -0.5390776E-03
   maximum displ.:     0.2520797 α      in ANC's #13, #1, #9, ...

........................................................................
.............................. CYCLE   25 ..............................
........................................................................

 iter      E             dE          RMSdq      gap      omega  full diag
   1   -120.2972020 -0.120297E+03  0.980E-02    2.25       0.0  T
   2   -120.2972094 -0.743822E-05  0.446E-02    2.25       1.0  T
   3   -120.2972103 -0.845190E-06  0.943E-03    2.24       1.2  T
   4   -120.2972100  0.231762E-06  0.468E-03    2.24       2.4  T
   5   -120.2972106 -0.558430E-06  0.186E-03    2.24       6.1  T
   6   -120.2972107 -0.150737E-06  0.809E-04    2.24      14.1  T
   7   -120.2972108 -0.151221E-07  0.517E-04    2.24      22.0  T
     SCC iter.                  ...        0 min,  0.962 sec
     gradient                   ...        0 min,  0.116 sec
 * total energy  :  -118.5659113 Eh     change       -0.4407833E-03 Eh
   gradient norm :     0.0114002 Eh/α   predicted    -0.3151268E-03 ( -28.51%)
   displ. norm   :     0.4609056 α      lambda       -0.6720957E-03
   maximum displ.:     0.2928818 α      in ANC's #13, #1, #9, ...

........................................................................
.............................. CYCLE   26 ..............................
........................................................................

 iter      E             dE          RMSdq      gap      omega  full diag
   1   -120.3012626 -0.120301E+03  0.811E-02    2.25       0.0  T
   2   -120.3012677 -0.511910E-05  0.401E-02    2.24       1.0  T
   3   -120.3012672  0.559264E-06  0.103E-02    2.24       1.1  T
   4   -120.3012672 -0.903856E-08  0.618E-03    2.24       1.8  T
   5   -120.3012686 -0.143708E-05  0.210E-03    2.24       5.4  T
   6   -120.3012688 -0.236335E-06  0.948E-04    2.24      12.0  T
   7   -120.3012689 -0.259035E-07  0.565E-04    2.24      20.2  T
     SCC iter.                  ...        0 min,  1.005 sec
     gradient                   ...        0 min,  0.115 sec
 * total energy  :  -118.5664499 Eh     change       -0.5386174E-03 Eh
   gradient norm :     0.0081482 Eh/α   predicted    -0.4074372E-03 ( -24.35%)
   displ. norm   :     0.5173064 α      lambda       -0.6243032E-03
   maximum displ.:     0.3409953 α      in ANC's #13, #1, #12, ...

........................................................................
.............................. CYCLE   27 ..............................
........................................................................

 iter      E             dE          RMSdq      gap      omega  full diag
   1   -120.3043280 -0.120304E+03  0.914E-02    2.25       0.0  T
   2   -120.3043350 -0.700352E-05  0.438E-02    2.24       1.0  T
   3   -120.3043340  0.944705E-06  0.113E-02    2.24       1.0  T
   4   -120.3043346 -0.571364E-06  0.688E-03    2.24       1.7  T
   5   -120.3043363 -0.171556E-05  0.247E-03    2.24       4.6  T
   6   -120.3043366 -0.237311E-06  0.131E-03    2.24       8.7  T
   7   -120.3043366 -0.540634E-07  0.769E-04    2.24      14.8  T
   8   -120.3043366 -0.784425E-08  0.471E-04    2.24      24.2  T
     SCC iter.                  ...        0 min,  1.100 sec
     gradient                   ...        0 min,  0.111 sec
 * total energy  :  -118.5669614 Eh     change       -0.5115350E-03 Eh
   gradient norm :     0.0072772 Eh/α   predicted    -0.3956857E-03 ( -22.65%)
   displ. norm   :     0.5230980 α      lambda       -0.5967579E-03
   maximum displ.:     0.3578925 α      in ANC's #13, #1, #5, ...

........................................................................
.............................. CYCLE   28 ..............................
........................................................................

 iter      E             dE          RMSdq      gap      omega  full diag
   1   -120.3070974 -0.120307E+03  0.735E-02    2.24       0.0  T
   2   -120.3071014 -0.400242E-05  0.379E-02    2.24       1.0  T
   3   -120.3070991  0.231003E-05  0.103E-02    2.24       1.1  T
   4   -120.3071007 -0.164273E-05  0.600E-03    2.23       1.9  T
   5   -120.3071023 -0.153366E-05  0.237E-03    2.23       4.8  T
   6   -120.3071026 -0.299858E-06  0.999E-04    2.23      11.4  T
   7   -120.3071026 -0.261910E-07  0.564E-04    2.23      20.2  T
     SCC iter.                  ...        0 min,  0.946 sec
     gradient                   ...        0 min,  0.114 sec
 * total energy  :  -118.5674520 Eh     change       -0.4905960E-03 Eh
   gradient norm :     0.0074286 Eh/α   predicted    -0.3800252E-03 ( -22.54%)
   displ. norm   :     0.5662192 α      lambda       -0.5689679E-03
   maximum displ.:     0.3964784 α      in ANC's #13, #1, #5, ...

........................................................................
.............................. CYCLE   29 ..............................
........................................................................

 iter      E             dE          RMSdq      gap      omega  full diag
   1   -120.3070242 -0.120307E+03  0.767E-02    2.24       0.0  T
   2   -120.3070284 -0.425044E-05  0.388E-02    2.24       1.0  T
   3   -120.3070264  0.197722E-05  0.109E-02    2.23       1.0  T
   4   -120.3070278 -0.139516E-05  0.638E-03    2.23       1.8  T
   5   -120.3070294 -0.161965E-05  0.239E-03    2.23       4.8  T
   6   -120.3070296 -0.204588E-06  0.134E-03    2.23       8.5  T
   7   -120.3070297 -0.576862E-07  0.673E-04    2.23      16.9  T
   8   -120.3070297 -0.335140E-08  0.391E-04    2.23      29.1  T
     SCC iter.                  ...        0 min,  1.027 sec
     gradient                   ...        0 min,  0.114 sec
 * total energy  :  -118.5679342 Eh     change       -0.4821646E-03 Eh
   gradient norm :     0.0078225 Eh/α   predicted    -0.3756968E-03 ( -22.08%)
   displ. norm   :     0.5888811 α      lambda       -0.6311419E-03
   maximum displ.:     0.4243958 α      in ANC's #13, #5, #1, ...

........................................................................
.............................. CYCLE   30 ..............................
........................................................................

 iter      E             dE          RMSdq      gap      omega  full diag
   1   -120.3090243 -0.120309E+03  0.756E-02    2.24       0.0  T
   2   -120.3090270 -0.266056E-05  0.403E-02    2.24       1.0  T
   3   -120.3090242  0.280849E-05  0.101E-02    2.24       1.1  T
   4   -120.3090260 -0.188455E-05  0.600E-03    2.23       1.9  T
   5   -120.3090278 -0.172890E-05  0.217E-03    2.23       5.2  T
   6   -120.3090280 -0.204018E-06  0.981E-04    2.23      11.6  T
   7   -120.3090280 -0.321168E-07  0.446E-04    2.23      25.5  T
     SCC iter.                  ...        0 min,  0.974 sec
     gradient                   ...        0 min,  0.119 sec
 * total energy  :  -118.5684369 Eh     change       -0.5026788E-03 Eh
   gradient norm :     0.0081521 Eh/α   predicted    -0.4250077E-03 ( -15.45%)
   displ. norm   :     0.7823952 α      lambda       -0.7677926E-03
   maximum displ.:     0.5755485 α      in ANC's #13, #5, #1, ...

........................................................................
.............................. CYCLE   31 ..............................
........................................................................

 iter      E             dE          RMSdq      gap      omega  full diag
   1   -120.3008648 -0.120301E+03  0.102E-01    2.25       0.0  T
   2   -120.3008768 -0.120097E-04  0.543E-02    2.24       1.0  T
   3   -120.3008734  0.334285E-05  0.134E-02    2.24       1.0  T
   4   -120.3008757 -0.222865E-05  0.749E-03    2.24       1.5  T
   5   -120.3008783 -0.263305E-05  0.267E-03    2.24       4.3  T
   6   -120.3008784 -0.157795E-06  0.140E-03    2.24       8.1  T
   7   -120.3008785 -0.935520E-07  0.647E-04    2.24      17.6  T
   8   -120.3008785 -0.468337E-08  0.355E-04    2.24      32.1  T
     SCC iter.                  ...        0 min,  0.921 sec
     gradient                   ...        0 min,  0.115 sec
 * total energy  :  -118.5688255 Eh     change       -0.3886350E-03 Eh
   gradient norm :     0.0132238 Eh/α   predicted    -0.6189052E-03 (  59.25%)
   displ. norm   :     0.3329170 α      lambda       -0.6872156E-03
   maximum displ.:     0.2214760 α      in ANC's #13, #5, #7, ...

........................................................................
.............................. CYCLE   32 ..............................
........................................................................

 iter      E             dE          RMSdq      gap      omega  full diag
   1   -120.3044796 -0.120304E+03  0.752E-02    2.25       0.0  T
   2   -120.3044842 -0.457799E-05  0.374E-02    2.25       1.0  T
   3   -120.3044840  0.231086E-06  0.976E-03    2.25       1.2  T
   4   -120.3044839  0.856229E-07  0.538E-03    2.24       2.1  T
   5   -120.3044849 -0.987889E-06  0.175E-03    2.25       6.5  T
   6   -120.3044850 -0.122703E-06  0.713E-04    2.25      16.0  T
   7   -120.3044850 -0.677423E-08  0.474E-04    2.25      24.0  T
     SCC iter.                  ...        0 min,  1.191 sec
     gradient                   ...        0 min,  0.124 sec
 * total energy  :  -118.5693435 Eh     change       -0.5180125E-03 Eh
   gradient norm :     0.0064356 Eh/α   predicted    -0.3816930E-03 ( -26.32%)
   displ. norm   :     0.5992268 α      lambda       -0.5814172E-03
   maximum displ.:     0.4337260 α      in ANC's #13, #5, #7, ...

........................................................................
.............................. CYCLE   33 ..............................
........................................................................

 iter      E             dE          RMSdq      gap      omega  full diag
   1   -120.3053008 -0.120305E+03  0.116E-01    2.26       0.0  T
   2   -120.3053063 -0.551562E-05  0.579E-02    2.26       1.0  T
   3   -120.3053059  0.417573E-06  0.131E-02    2.26       1.0  T
   4   -120.3053046  0.127804E-05  0.775E-03    2.26       1.5  T
   5   -120.3053076 -0.305987E-05  0.162E-03    2.26       7.0  T
   6   -120.3053077 -0.100325E-06  0.899E-04    2.26      12.7  T
   7   -120.3053078 -0.271544E-07  0.489E-04    2.26      23.3  T
     SCC iter.                  ...        0 min,  0.994 sec
     gradient                   ...        0 min,  0.115 sec
 * total energy  :  -118.5698104 Eh     change       -0.4668781E-03 Eh
   gradient norm :     0.0063769 Eh/α   predicted    -0.3950948E-03 ( -15.38%)
   displ. norm   :     0.5587799 α      lambda       -0.5118151E-03
   maximum displ.:     0.3750911 α      in ANC's #13, #7, #5, ...

........................................................................
.............................. CYCLE   34 ..............................
........................................................................

 iter      E             dE          RMSdq      gap      omega  full diag
   1   -120.3080796 -0.120308E+03  0.128E-01    2.27       0.0  T
   2   -120.3080870 -0.734728E-05  0.632E-02    2.27       1.0  T
   3   -120.3080870 -0.289660E-07  0.142E-02    2.27       1.0  T
   4   -120.3080853  0.173424E-05  0.809E-03    2.27       1.4  T
   5   -120.3080887 -0.343023E-05  0.161E-03    2.27       7.1  T
   6   -120.3080887 -0.658097E-07  0.995E-04    2.27      11.5  T
   7   -120.3080888 -0.178530E-07  0.680E-04    2.27      16.8  T
     SCC iter.                  ...        0 min,  1.041 sec
     gradient                   ...        0 min,  0.115 sec
 * total energy  :  -118.5702043 Eh     change       -0.3938791E-03 Eh
   gradient norm :     0.0063423 Eh/α   predicted    -0.3358142E-03 ( -14.74%)
   displ. norm   :     0.6444463 α      lambda       -0.4466515E-03
   maximum displ.:     0.4656578 α      in ANC's #13, #5, #7, ...

........................................................................
.............................. CYCLE   35 ..............................
........................................................................

 iter      E             dE          RMSdq      gap      omega  full diag
   1   -120.3047560 -0.120305E+03  0.121E-01    2.29       0.0  T
   2   -120.3047624 -0.637682E-05  0.615E-02    2.28       1.0  T
   3   -120.3047624 -0.569470E-07  0.128E-02    2.28       1.0  T
   4   -120.3047604  0.200529E-05  0.724E-03    2.28       1.6  T
   5   -120.3047637 -0.331174E-05  0.212E-03    2.28       5.4  T
   6   -120.3047639 -0.140835E-06  0.130E-03    2.28       8.7  T
   7   -120.3047639 -0.452583E-07  0.817E-04    2.28      13.9  T
   8   -120.3047639 -0.550075E-08  0.475E-04    2.28      24.0  T
     SCC iter.                  ...        0 min,  1.318 sec
     gradient                   ...        0 min,  0.120 sec
 * total energy  :  -118.5704858 Eh     change       -0.2814965E-03 Eh
   gradient norm :     0.0081244 Eh/α   predicted    -0.3160768E-03 (  12.28%)
   displ. norm   :     0.4115504 α      lambda       -0.4823062E-03
   maximum displ.:     0.2146133 α      in ANC's #7, #13, #6, ...

........................................................................
.............................. CYCLE   36 ..............................
........................................................................

 iter      E             dE          RMSdq      gap      omega  full diag
   1   -120.3126532 -0.120313E+03  0.117E-01    2.29       0.0  T
   2   -120.3126638 -0.105813E-04  0.578E-02    2.29       1.0  T
   3   -120.3126637  0.292938E-07  0.138E-02    2.29       1.0  T
   4   -120.3126640 -0.295707E-06  0.759E-03    2.29       1.5  T
   5   -120.3126656 -0.155568E-05  0.237E-03    2.29       4.8  T
   6   -120.3126658 -0.210198E-06  0.107E-03    2.29      10.6  T
   7   -120.3126658 -0.893642E-08  0.792E-04    2.29      14.4  T
   8   -120.3126658 -0.243233E-08  0.546E-04    2.29      20.9  T
     SCC iter.                  ...        0 min,  1.191 sec
     gradient                   ...        0 min,  0.113 sec
 * total energy  :  -118.5707482 Eh     change       -0.2624091E-03 Eh
   gradient norm :     0.0090447 Eh/α   predicted    -0.2819995E-03 (   7.47%)
   displ. norm   :     0.4536309 α      lambda       -0.3465090E-03
   maximum displ.:     0.2797101 α      in ANC's #13, #7, #5, ...

........................................................................
.............................. CYCLE   37 ..............................
........................................................................

 iter      E             dE          RMSdq      gap      omega  full diag
   1   -120.3091512 -0.120309E+03  0.972E-02    2.31       0.0  T
   2   -120.3091572 -0.593699E-05  0.488E-02    2.31       1.0  T
   3   -120.3091563  0.902163E-06  0.116E-02    2.31       1.0  T
   4   -120.3091562  0.727341E-08  0.696E-03    2.31       1.6  T
   5   -120.3091584 -0.214892E-05  0.194E-03    2.31       5.9  T
   6   -120.3091585 -0.142117E-06  0.108E-03    2.31      10.5  T
   7   -120.3091586 -0.413909E-07  0.627E-04    2.31      18.2  T
   8   -120.3091586 -0.320311E-08  0.362E-04    2.31      31.5  T
     SCC iter.                  ...        0 min,  1.177 sec
     gradient                   ...        0 min,  0.114 sec
 * total energy  :  -118.5709521 Eh     change       -0.2039070E-03 Eh
   gradient norm :     0.0067113 Eh/α   predicted    -0.2089080E-03 (   2.45%)
   displ. norm   :     0.3206179 α      lambda       -0.2711506E-03
   maximum displ.:     0.1616401 α      in ANC's #13, #7, #6, ...

........................................................................
.............................. CYCLE   38 ..............................
........................................................................

 iter      E             dE          RMSdq      gap      omega  full diag
   1   -120.3082337 -0.120308E+03  0.625E-02    2.32       0.0  T
   2   -120.3082356 -0.183441E-05  0.332E-02    2.32       1.0  T
   3   -120.3082349  0.649270E-06  0.708E-03    2.32       1.6  T
   4   -120.3082352 -0.237673E-06  0.438E-03    2.32       2.6  T
   5   -120.3082361 -0.919595E-06  0.123E-03    2.32       9.2  T
   6   -120.3082362 -0.672254E-07  0.649E-04    2.32      17.6  T
   7   -120.3082362 -0.115689E-07  0.373E-04    2.32      30.5  T
     SCC iter.                  ...        0 min,  0.977 sec
     gradient                   ...        0 min,  0.114 sec
 * total energy  :  -118.5711695 Eh     change       -0.2174147E-03 Eh
   gradient norm :     0.0050295 Eh/α   predicted    -0.1495134E-03 ( -31.23%)
   displ. norm   :     0.4031053 α      lambda       -0.4280728E-03
   maximum displ.:     0.1404857 α      in ANC's #6, #7, #1, ...

........................................................................
.............................. CYCLE   39 ..............................
........................................................................

 iter      E             dE          RMSdq      gap      omega  full diag
   1   -120.3116723 -0.120312E+03  0.767E-02    2.32       0.0  T
   2   -120.3116749 -0.257023E-05  0.441E-02    2.33       1.0  T
   3   -120.3116732  0.168311E-05  0.740E-03    2.33       1.5  T
   4   -120.3116752 -0.201552E-05  0.364E-03    2.33       3.1  T
   5   -120.3116756 -0.384845E-06  0.183E-03    2.33       6.2  T
   6   -120.3116757 -0.145831E-06  0.763E-04    2.33      14.9  T
   7   -120.3116757 -0.138205E-07  0.443E-04    2.33      25.8  T
     SCC iter.                  ...        0 min,  0.881 sec
     gradient                   ...        0 min,  0.118 sec
 * total energy  :  -118.5714257 Eh     change       -0.2561729E-03 Eh
   gradient norm :     0.0076321 Eh/α   predicted    -0.2488170E-03 (  -2.87%)
   displ. norm   :     0.5219531 α      lambda       -0.2789678E-03
   maximum displ.:     0.2509054 α      in ANC's #13, #7, #6, ...

........................................................................
.............................. CYCLE   40 ..............................
........................................................................

 iter      E             dE          RMSdq      gap      omega  full diag
   1   -120.3057046 -0.120306E+03  0.101E-01    2.35       0.0  T
   2   -120.3057088 -0.421449E-05  0.548E-02    2.35       1.0  T
   3   -120.3057077  0.116638E-05  0.108E-02    2.35       1.1  T
   4   -120.3057079 -0.256399E-06  0.635E-03    2.35       1.8  T
   5   -120.3057099 -0.199481E-05  0.157E-03    2.35       7.2  T
   6   -120.3057100 -0.925442E-07  0.857E-04    2.35      13.3  T
   7   -120.3057100 -0.367977E-07  0.406E-04    2.35      28.0  T
     SCC iter.                  ...        0 min,  1.019 sec
     gradient                   ...        0 min,  0.114 sec
 * total energy  :  -118.5715541 Eh     change       -0.1283986E-03 Eh
   gradient norm :     0.0093623 Eh/α   predicted    -0.1774868E-03 (  38.23%)
   displ. norm   :     0.1774107 α      lambda       -0.2320234E-03
   maximum displ.:     0.0803268 α      in ANC's #1, #8, #2, ...

........................................................................
.............................. CYCLE   41 ..............................
........................................................................

 iter      E             dE          RMSdq      gap      omega  full diag
   1   -120.3091732 -0.120309E+03  0.439E-02    2.35       0.0  T
   2   -120.3091747 -0.155824E-05  0.223E-02    2.35       1.0  T
   3   -120.3091743  0.419617E-06  0.581E-03    2.35       2.0  T
   4   -120.3091748 -0.445687E-06  0.325E-03    2.35       3.5  T
   5   -120.3091751 -0.309919E-06  0.846E-04    2.35      13.5  T
   6   -120.3091751 -0.229047E-07  0.340E-04    2.35      33.5  T
     SCC iter.                  ...        0 min,  0.796 sec
     gradient                   ...        0 min,  0.115 sec
 * total energy  :  -118.5717307 Eh     change       -0.1765747E-03 Eh
   gradient norm :     0.0057221 Eh/α   predicted    -0.1196629E-03 ( -32.23%)
   displ. norm   :     0.3174130 α      lambda       -0.2509369E-03
   maximum displ.:     0.1410555 α      in ANC's #1, #3, #8, ...

........................................................................
.............................. CYCLE   42 ..............................
........................................................................

 iter      E             dE          RMSdq      gap      omega  full diag
   1   -120.3115333 -0.120312E+03  0.591E-02    2.35       0.0  T
   2   -120.3115353 -0.198869E-05  0.328E-02    2.35       1.0  T
   3   -120.3115340  0.133655E-05  0.753E-03    2.35       1.5  T
   4   -120.3115353 -0.134394E-05  0.370E-03    2.35       3.1  T
   5   -120.3115358 -0.436785E-06  0.149E-03    2.35       7.7  T
   6   -120.3115359 -0.116959E-06  0.640E-04    2.35      17.8  T
   7   -120.3115359 -0.107168E-07  0.372E-04    2.35      30.6  T
     SCC iter.                  ...        0 min,  0.954 sec
     gradient                   ...        0 min,  0.114 sec
 * total energy  :  -118.5718987 Eh     change       -0.1680767E-03 Eh
   gradient norm :     0.0038042 Eh/α   predicted    -0.1381102E-03 ( -17.83%)
   displ. norm   :     0.3249878 α      lambda       -0.1292723E-03
   maximum displ.:     0.1445975 α      in ANC's #1, #3, #6, ...
 * RMSD in coord.:     0.8814700 α      energy gain  -0.7972968E-02 Eh

generating ANC from exact Hessian ...
Using Lindh-Hessian (1995)
 Shifting diagonal of input Hessian by    1.0191357891391100E-002
 Lowest  eigenvalues of input Hessian
    0.010000    0.000000    0.000000    0.000000    0.000000    0.000000
    0.000000    0.010267    0.010328    0.010440    0.010514    0.010549
    0.010612    0.010688    0.010966    0.010999    0.011412    0.011570
 Highest eigenvalues
    2.021926    2.081462    2.115301    2.152252    2.185396    2.225672


........................................................................
.............................. CYCLE   43 ..............................
........................................................................

 iter      E             dE          RMSdq      gap      omega  full diag
   1   -120.3114423 -0.120311E+03  0.522E-02    2.36       0.0  T
   2   -120.3114432 -0.894874E-06  0.300E-02    2.36       1.0  T
   3   -120.3114423  0.933390E-06  0.550E-03    2.36       2.1  T
   4   -120.3114432 -0.926221E-06  0.278E-03    2.36       4.1  T
   5   -120.3114435 -0.294912E-06  0.112E-03    2.36      10.2  T
   6   -120.3114436 -0.456868E-07  0.598E-04    2.36      19.0  T
   7   -120.3114436 -0.560784E-08  0.374E-04    2.36      30.5  T
     SCC iter.                  ...        0 min,  1.145 sec
     gradient                   ...        0 min,  0.114 sec
 * total energy  :  -118.5719902 Eh     change       -0.9142439E-04 Eh
   gradient norm :     0.0043319 Eh/α   predicted     0.0000000E+00 (-100.00%)
   displ. norm   :     0.0561043 α      lambda       -0.6607441E-04
   maximum displ.:     0.0287870 α      in ANC's #3, #6, #17, ...

........................................................................
.............................. CYCLE   44 ..............................
........................................................................

 iter      E             dE          RMSdq      gap      omega  full diag
   1   -120.3116500 -0.120312E+03  0.150E-02    2.36       0.0  T
   2   -120.3116502 -0.220170E-06  0.831E-03    2.36       1.4  T
   3   -120.3116501  0.126896E-06  0.214E-03    2.36       5.3  T
   4   -120.3116503 -0.140173E-06  0.103E-03    2.36      11.0  T
   5   -120.3116503 -0.307211E-07  0.461E-04    2.36      24.7  T
   6   -120.3116503 -0.452660E-08  0.251E-04    2.36      45.5  T
     SCC iter.                  ...        0 min,  0.803 sec
     gradient                   ...        0 min,  0.115 sec
 * total energy  :  -118.5720455 Eh     change       -0.5538160E-04 Eh
   gradient norm :     0.0022172 Eh/α   predicted    -0.3395899E-04 ( -38.68%)
   displ. norm   :     0.1958991 α      lambda       -0.1575930E-03
   maximum displ.:     0.1039292 α      in ANC's #3, #6, #17, ...

........................................................................
.............................. CYCLE   45 ..............................
........................................................................

 iter      E             dE          RMSdq      gap      omega  full diag
   1   -120.3119170 -0.120312E+03  0.453E-02    2.36       0.0  T
   2   -120.3119181 -0.117577E-05  0.259E-02    2.36       1.0  T
   3   -120.3119166  0.157495E-05  0.702E-03    2.36       1.6  T
   4   -120.3119184 -0.186617E-05  0.254E-03    2.36       4.5  T
   5   -120.3119185 -0.261954E-07  0.143E-03    2.36       8.0  T
   6   -120.3119186 -0.123616E-06  0.572E-04    2.36      19.9  T
   7   -120.3119186 -0.990393E-08  0.384E-04    2.36      29.7  T
     SCC iter.                  ...        0 min,  0.917 sec
     gradient                   ...        0 min,  0.122 sec
 * total energy  :  -118.5721358 Eh     change       -0.9028617E-04 Eh
   gradient norm :     0.0039059 Eh/α   predicted    -0.8182374E-04 (  -9.37%)
   displ. norm   :     0.1699875 α      lambda       -0.9735484E-04
   maximum displ.:     0.0913427 α      in ANC's #3, #6, #17, ...

........................................................................
.............................. CYCLE   46 ..............................
........................................................................

 iter      E             dE          RMSdq      gap      omega  full diag
   1   -120.3116325 -0.120312E+03  0.474E-02    2.36       0.0  T
   2   -120.3116341 -0.156658E-05  0.248E-02    2.36       1.0  T
   3   -120.3116337  0.387266E-06  0.550E-03    2.36       2.1  T
   4   -120.3116339 -0.206435E-06  0.310E-03    2.36       3.7  T
   5   -120.3116343 -0.415488E-06  0.119E-03    2.36       9.6  T
   6   -120.3116343 -0.357564E-07  0.538E-04    2.36      21.2  T
   7   -120.3116343 -0.164033E-07  0.236E-04    2.36      48.4  T
     SCC iter.                  ...        0 min,  0.877 sec
     gradient                   ...        0 min,  0.116 sec
 * total energy  :  -118.5721972 Eh     change       -0.6133874E-04 Eh
   gradient norm :     0.0049296 Eh/α   predicted    -0.5008706E-04 ( -18.34%)
   displ. norm   :     0.1750122 α      lambda       -0.8552145E-04
   maximum displ.:     0.0950804 α      in ANC's #3, #6, #1, ...

........................................................................
.............................. CYCLE   47 ..............................
........................................................................

 iter      E             dE          RMSdq      gap      omega  full diag
   1   -120.3114196 -0.120311E+03  0.380E-02    2.36       0.0  T
   2   -120.3114199 -0.342015E-06  0.220E-02    2.36       1.0  T
   3   -120.3114196  0.339304E-06  0.327E-03    2.36       3.5  T
   4   -120.3114200 -0.367921E-06  0.157E-03    2.36       7.3  T
   5   -120.3114200 -0.841356E-07  0.641E-04    2.36      17.8  T
   6   -120.3114201 -0.177476E-07  0.304E-04    2.36      37.5  T
     SCC iter.                  ...        0 min,  0.704 sec
     gradient                   ...        0 min,  0.122 sec
 * total energy  :  -118.5722707 Eh     change       -0.7349719E-04 Eh
   gradient norm :     0.0041297 Eh/α   predicted    -0.4407100E-04 ( -40.04%)
   displ. norm   :     0.2827804 α      lambda       -0.1433288E-03
   maximum displ.:     0.1577994 α      in ANC's #3, #6, #1, ...

........................................................................
.............................. CYCLE   48 ..............................
........................................................................

 iter      E             dE          RMSdq      gap      omega  full diag
   1   -120.3114085 -0.120311E+03  0.619E-02    2.36       0.0  T
   2   -120.3114095 -0.101113E-05  0.358E-02    2.36       1.0  T
   3   -120.3114088  0.708192E-06  0.531E-03    2.36       2.1  T
   4   -120.3114096 -0.871231E-06  0.231E-03    2.36       4.9  T
   5   -120.3114097 -0.106898E-06  0.101E-03    2.36      11.3  T
   6   -120.3114098 -0.542787E-07  0.413E-04    2.36      27.6  T
   7   -120.3114098 -0.348325E-08  0.282E-04    2.36      40.5  T
     SCC iter.                  ...        0 min,  0.944 sec
     gradient                   ...        0 min,  0.115 sec
 * total energy  :  -118.5723787 Eh     change       -0.1080356E-03 Eh
   gradient norm :     0.0025223 Eh/α   predicted    -0.7739513E-04 ( -28.36%)
   displ. norm   :     0.2868268 α      lambda       -0.9778548E-04
   maximum displ.:     0.1598606 α      in ANC's #3, #6, #1, ...

........................................................................
.............................. CYCLE   49 ..............................
........................................................................

 iter      E             dE          RMSdq      gap      omega  full diag
   1   -120.3108801 -0.120311E+03  0.614E-02    2.37       0.0  T
   2   -120.3108811 -0.997823E-06  0.356E-02    2.37       1.0  T
   3   -120.3108799  0.115649E-05  0.564E-03    2.36       2.0  T
   4   -120.3108812 -0.123862E-05  0.257E-03    2.37       4.4  T
   5   -120.3108814 -0.238517E-06  0.101E-03    2.37      11.3  T
   6   -120.3108815 -0.340279E-07  0.473E-04    2.37      24.1  T
   7   -120.3108815 -0.838843E-08  0.260E-04    2.37      43.9  T
     SCC iter.                  ...        0 min,  1.018 sec
     gradient                   ...        0 min,  0.114 sec
 * total energy  :  -118.5724570 Eh     change       -0.7834086E-04 Eh
   gradient norm :     0.0036058 Eh/α   predicted    -0.5292023E-04 ( -32.45%)
   displ. norm   :     0.3222169 α      lambda       -0.1083313E-03
   maximum displ.:     0.1830273 α      in ANC's #3, #6, #1, ...

........................................................................
.............................. CYCLE   50 ..............................
........................................................................

 iter      E             dE          RMSdq      gap      omega  full diag
   1   -120.3107647 -0.120311E+03  0.679E-02    2.37       0.0  T
   2   -120.3107656 -0.898292E-06  0.392E-02    2.37       1.0  T
   3   -120.3107643  0.136194E-05  0.594E-03    2.37       1.9  T
   4   -120.3107657 -0.146979E-05  0.269E-03    2.37       4.2  T
   5   -120.3107660 -0.245571E-06  0.983E-04    2.37      11.6  T
   6   -120.3107660 -0.466480E-07  0.426E-04    2.37      26.8  T
     SCC iter.                  ...        0 min,  0.790 sec
     gradient                   ...        0 min,  0.115 sec
 * total energy  :  -118.5725503 Eh     change       -0.9326169E-04 Eh
   gradient norm :     0.0044387 Eh/α   predicted    -0.5978958E-04 ( -35.89%)
   displ. norm   :     0.4464360 α      lambda       -0.1710224E-03
   maximum displ.:     0.2536438 α      in ANC's #3, #6, #1, ...

........................................................................
.............................. CYCLE   51 ..............................
........................................................................

 iter      E             dE          RMSdq      gap      omega  full diag
   1   -120.3107985 -0.120311E+03  0.924E-02    2.38       0.0  T
   2   -120.3108002 -0.165334E-05  0.532E-02    2.38       1.0  T
   3   -120.3107969  0.326323E-05  0.852E-03    2.38       1.3  T
   4   -120.3108003 -0.338436E-05  0.392E-03    2.38       2.9  T
   5   -120.3108009 -0.559265E-06  0.155E-03    2.38       7.3  T
   6   -120.3108010 -0.127230E-06  0.624E-04    2.38      18.3  T
   7   -120.3108010 -0.155177E-07  0.309E-04    2.38      36.8  T
     SCC iter.                  ...        0 min,  0.935 sec
     gradient                   ...        0 min,  0.119 sec
 * total energy  :  -118.5726972 Eh     change       -0.1468528E-03 Eh
   gradient norm :     0.0049124 Eh/α   predicted    -0.1025562E-03 ( -30.16%)
   displ. norm   :     0.5464358 α      lambda       -0.2314570E-03
   maximum displ.:     0.3166918 α      in ANC's #3, #6, #1, ...

........................................................................
.............................. CYCLE   52 ..............................
........................................................................

 iter      E             dE          RMSdq      gap      omega  full diag
   1   -120.3109759 -0.120311E+03  0.110E-01    2.38       0.0  T
   2   -120.3109781 -0.222654E-05  0.631E-02    2.39       1.0  T
   3   -120.3109743  0.380945E-05  0.986E-03    2.39       1.2  T
   4   -120.3109780 -0.370406E-05  0.493E-03    2.39       2.3  T
   5   -120.3109790 -0.101507E-05  0.168E-03    2.39       6.8  T
   6   -120.3109792 -0.176570E-06  0.610E-04    2.39      18.7  T
   7   -120.3109792 -0.139062E-07  0.282E-04    2.39      40.4  T
     SCC iter.                  ...        0 min,  0.939 sec
     gradient                   ...        0 min,  0.129 sec
 * total energy  :  -118.5728918 Eh     change       -0.1946198E-03 Eh
   gradient norm :     0.0050350 Eh/α   predicted    -0.1502958E-03 ( -22.77%)
   displ. norm   :     0.5355477 α      lambda       -0.2571816E-03
   maximum displ.:     0.3157217 α      in ANC's #3, #1, #6, ...

........................................................................
.............................. CYCLE   53 ..............................
........................................................................

 iter      E             dE          RMSdq      gap      omega  full diag
   1   -120.3122714 -0.120312E+03  0.103E-01    2.40       0.0  T
   2   -120.3122735 -0.210505E-05  0.586E-02    2.40       1.0  T
   3   -120.3122703  0.323342E-05  0.927E-03    2.40       1.2  T
   4   -120.3122732 -0.287400E-05  0.499E-03    2.41       2.3  T
   5   -120.3122743 -0.116340E-05  0.169E-03    2.40       6.8  T
   6   -120.3122745 -0.187157E-06  0.545E-04    2.40      20.9  T
   7   -120.3122745 -0.696946E-08  0.287E-04    2.40      39.8  T
     SCC iter.                  ...        0 min,  0.837 sec
     gradient                   ...        0 min,  0.118 sec
[...]
       111                         -0.3602669              -9.8034
       112                         -0.3546336              -9.6501
       113                         -0.3340417              -9.0897
       114                         -0.3299028              -8.9771
       115                         -0.3260458              -8.8722
       116                         -0.3195771              -8.6961
       117                         -0.3016389              -8.2080
       118                         -0.2871154              -7.8128
       119                         -0.2820204              -7.6742
       ...                                ...                  ...
       218                          1.2755368              34.7091
      -------------------------------------------------------------
                  HL-Gap            0.0944916 Eh            2.5712 eV
             Fermi-level           -0.4260233 Eh          -11.5927 eV

     #   Z          covCN         q      C6AA      α(0)
     1   6 C        3.645     0.024    20.502     6.508
     2   8 O        1.706    -0.249    18.131     5.749
     3   6 C        2.859     0.125    25.261     8.238
     4   6 C        2.920    -0.075    29.871     8.963
     5   6 C        2.986     0.014    27.700     8.633
     6   6 C        2.921    -0.031    28.784     8.798
     7   6 C        2.915    -0.021    28.535     8.760
     8   6 C        2.917    -0.024    28.603     8.770
     9   6 C        2.917    -0.030    28.738     8.791
    10   6 C        2.988     0.004    27.929     8.669
    11   6 C        2.970    -0.010    28.255     8.719
    12   6 C        3.283     0.104    24.316     7.929
    13   8 O        1.659    -0.256    18.261     5.769
    14  15 P        4.418     0.527   138.882    21.170
    15  34 Se       1.901     0.021   235.017    26.713
    16  16 S        2.039    -0.038   142.615    20.100
    17   6 C        2.976     0.039    27.120     8.542
    18   6 C        2.950    -0.033    28.809     8.803
    19   6 C        2.922    -0.024    28.604     8.771
    20   6 C        2.920    -0.025    28.621     8.773
    21   6 C        2.922    -0.024    28.599     8.770
    22   6 C        2.963    -0.028    28.689     8.786
    23   7 N        2.681    -0.163    24.518     7.354
    24   6 C        3.998     0.058    19.534     6.279
    25   6 C        3.755    -0.121    22.877     6.820
    26   6 C        3.754    -0.122    22.894     6.823
    27   6 C        3.918     0.042    19.813     6.326
    28   6 C        3.756    -0.125    22.951     6.831
    29   6 C        3.755    -0.126    22.980     6.835
    30   8 O        1.660    -0.269    18.474     5.802
    31   6 C        3.071     0.108    25.544     8.287
    32   6 C        2.859     0.128    25.194     8.227
    33   8 O        1.705    -0.256    18.247     5.767
    34   6 C        3.646     0.029    20.421     6.494
    35   6 C        2.919    -0.079    29.974     8.978
    36   6 C        2.985     0.012    27.742     8.640
    37   6 C        2.921    -0.032    28.791     8.799
    38   6 C        2.915    -0.021    28.523     8.758
    39   6 C        2.917    -0.024    28.597     8.769
    40   6 C        2.917    -0.029    28.727     8.789
    41   6 C        2.988     0.004    27.930     8.669
    42   6 C        2.971    -0.013    28.335     8.731
    43   1 H        0.924     0.057     2.237     2.339
    44   1 H        0.924     0.064     2.156     2.296
    45   1 H        0.925     0.079     1.990     2.206
    46   1 H        0.926     0.067     2.121     2.277
    47   1 H        0.926     0.052     2.289     2.366
    48   1 H        0.926     0.056     2.245     2.343
    49   1 H        0.926     0.051     2.301     2.372
    50   1 H        0.926     0.044     2.397     2.421
    51   1 H        0.925     0.048     2.344     2.394
    52   1 H        0.926     0.049     2.333     2.389
    53   1 H        0.926     0.052     2.290     2.366
    54   1 H        0.926     0.051     2.308     2.376
    55   1 H        0.926     0.058     2.223     2.331
    56   1 H        0.924     0.043     2.415     2.430
    57   1 H        0.925     0.060     2.194     2.316
    58   1 H        0.925     0.058     2.225     2.332
    59   1 H        0.925     0.061     2.182     2.310
    60   1 H        0.925     0.058     2.223     2.332
    61   1 H        0.925     0.053     2.284     2.363
    62   1 H        0.925     0.063     2.165     2.301
    63   1 H        0.924     0.069     2.100     2.266
    64   1 H        0.925     0.059     2.208     2.323
    65   1 H        0.925     0.071     2.074     2.252
    66   1 H        0.924     0.052     2.293     2.368
    67   1 H        0.925     0.069     2.094     2.263
    68   1 H        0.925     0.060     2.199     2.319
    69   1 H        0.925     0.054     2.266     2.354
    70   1 H        0.924     0.055     2.259     2.350
    71   1 H        0.925     0.075     2.033     2.230
    72   1 H        0.924     0.052     2.296     2.369
    73   1 H        0.926     0.064     2.148     2.292
    74   1 H        0.926     0.051     2.311     2.377
    75   1 H        0.926     0.055     2.253     2.347
    76   1 H        0.926     0.053     2.287     2.365
    77   1 H        0.926     0.044     2.399     2.422

 Mol. C6AA /au·bohr⁶  :      82546.309858
 Mol. C8AA /au·bohr⁸  :    2303091.536392
 Mol. α(0) /au        :        458.463221


Wiberg/Mayer (AO) data.
largest (>0.10) Wiberg bond orders for each atom

 ---------------------------------------------------------------------------
     #   Z sym  total        # sym  WBO       # sym  WBO       # sym  WBO
 ---------------------------------------------------------------------------
     1   6 C    3.925 --    45 H    0.978    44 H    0.976    43 H    0.976
                             2 O    0.966
     2   8 O    2.282 --     3 C    1.065     1 C    0.966
     3   6 C    3.938 --     4 C    1.474    12 C    1.221     2 O    1.065
     4   6 C    3.976 --     3 C    1.474     5 C    1.272    46 H    0.960
     5   6 C    3.987 --     6 C    1.284     4 C    1.272    10 C    1.253
     6   6 C    3.988 --     7 C    1.550     5 C    1.284    47 H    0.966
                             9 C    0.116
     7   6 C    3.986 --     6 C    1.550     8 C    1.327    48 H    0.969
     8   6 C    3.981 --     9 C    1.545     7 C    1.327    49 H    0.969
     9   6 C    3.989 --     8 C    1.545    10 C    1.291    50 H    0.964
                             6 C    0.116
    10   6 C    3.985 --     9 C    1.291     5 C    1.253    11 C    1.219
    11   6 C    3.983 --    12 C    1.478    10 C    1.219    42 C    1.037
    12   6 C    3.887 --    11 C    1.478     3 C    1.221    13 O    0.912
    13   8 O    2.399 --    14 P    1.272    12 C    0.912
    14  15 P    5.053 --    13 O    1.272    30 O    1.259    23 N    1.236
                            15 Se   0.959
    15  34 Se   2.595 --    16 S    1.241    14 P    0.959
    16  16 S    2.397 --    15 Se   1.241    17 C    0.972
    17   6 C    3.957 --    22 C    1.410    18 C    1.408    16 S    0.972
                            20 C    0.104
    18   6 C    3.990 --    19 C    1.444    17 C    1.408    51 H    0.958
                            21 C    0.109
    19   6 C    3.991 --    18 C    1.444    20 C    1.431    52 H    0.968
                            22 C    0.109
    20   6 C    3.982 --    21 C    1.441    19 C    1.431    53 H    0.969
                            17 C    0.104
    21   6 C    3.991 --    20 C    1.441    22 C    1.437    54 H    0.968
                            18 C    0.109
    22   6 C    3.989 --    21 C    1.437    17 C    1.410    55 H    0.967
                            19 C    0.109
    23   7 N    3.375 --    14 P    1.236    27 C    0.943    24 C    0.927
    24   6 C    3.955 --    26 C    1.004    25 C    1.004    56 H    0.945
                            23 N    0.927
    25   6 C    3.986 --    24 C    1.004    59 H    0.981    58 H    0.980
                            57 H    0.979
    26   6 C    3.988 --    24 C    1.004    60 H    0.981    61 H    0.981
                            62 H    0.979
    27   6 C    3.955 --    28 C    1.008    29 C    1.007    63 H    0.955
                            23 N    0.943
    28   6 C    3.990 --    27 C    1.008    64 H    0.981    65 H    0.979
                            66 H    0.957
    29   6 C    3.990 --    27 C    1.007    68 H    0.983    67 H    0.980
                            69 H    0.966
    30   8 O    2.396 --    14 P    1.259    31 C    0.907
    31   6 C    3.882 --    42 C    1.475    32 C    1.214    30 O    0.907
    32   6 C    3.939 --    35 C    1.467    31 C    1.214    33 O    1.079
    33   8 O    2.243 --    32 C    1.079    34 C    0.973
    34   6 C    3.932 --    71 H    0.978    70 H    0.976    72 H    0.976
                            33 O    0.973
    35   6 C    3.977 --    32 C    1.467    36 C    1.273    73 H    0.960
    36   6 C    3.988 --    37 C    1.283    35 C    1.273    41 C    1.253
    37   6 C    3.988 --    38 C    1.551    36 C    1.283    74 H    0.967
                            40 C    0.116
    38   6 C    3.987 --    37 C    1.551    39 C    1.326    75 H    0.969
    39   6 C    3.980 --    40 C    1.546    38 C    1.326    76 H    0.969
    40   6 C    3.989 --    39 C    1.546    41 C    1.290    77 H    0.965
                            37 C    0.116
    41   6 C    3.984 --    40 C    1.290    36 C    1.253    42 C    1.219
    42   6 C    3.981 --    31 C    1.475    41 C    1.219    11 C    1.037
    43   1 H    0.996 --     1 C    0.976
    44   1 H    0.995 --     1 C    0.976
    45   1 H    0.993 --     1 C    0.978
    46   1 H    0.994 --     4 C    0.960
    47   1 H    0.997 --     6 C    0.966
    48   1 H    0.996 --     7 C    0.969
    49   1 H    0.997 --     8 C    0.969
    50   1 H    0.998 --     9 C    0.964
    51   1 H    0.998 --    18 C    0.958
    52   1 H    0.998 --    19 C    0.968
    53   1 H    0.996 --    20 C    0.969
    54   1 H    0.997 --    21 C    0.968
    55   1 H    0.997 --    22 C    0.967
    56   1 H    0.998 --    24 C    0.945
    57   1 H    0.995 --    25 C    0.979
    58   1 H    0.996 --    25 C    0.980
    59   1 H    0.996 --    25 C    0.981
    60   1 H    0.996 --    26 C    0.981
    61   1 H    0.997 --    26 C    0.981
    62   1 H    0.995 --    26 C    0.979
    63   1 H    0.995 --    27 C    0.955
    64   1 H    0.996 --    28 C    0.981
    65   1 H    0.994 --    28 C    0.979
    66   1 H    0.997 --    28 C    0.957
    67   1 H    0.994 --    29 C    0.980
    68   1 H    0.996 --    29 C    0.983
    69   1 H    0.997 --    29 C    0.966
    70   1 H    0.996 --    34 C    0.976
    71   1 H    0.994 --    34 C    0.978
    72   1 H    0.997 --    34 C    0.976
    73   1 H    0.994 --    35 C    0.960
    74   1 H    0.997 --    37 C    0.967
    75   1 H    0.996 --    38 C    0.969
    76   1 H    0.997 --    39 C    0.969
    77   1 H    0.998 --    40 C    0.965
 ---------------------------------------------------------------------------

Topologies differ in total number of bonds
Writing topology from bond orders to xtbtopo.mol

molecular dipole:
                 x           y           z       tot (Debye)
 q only:        0.533      -0.674      -0.162
   full:        0.161      -0.758       0.005       1.969
molecular quadrupole (traceless):
                xx          xy          yy          xz          yz          zz
 q only:       -9.136     -27.304      -6.353      -2.132      -6.267      15.489
  q+dip:      -17.135     -31.134      -7.475      -0.038      -6.461      24.611
   full:      -16.282     -26.065      -3.856      -0.510      -5.883      20.139

           -------------------------------------------------
          |                Geometry Summary                 |
           -------------------------------------------------

      molecular mass/u    :      663.6452077
   center of mass at/Å    :        0.2963455       0.2302470      -0.3157267
  moments of inertia/u·Å² :        0.5252300E+04   0.6209214E+04   0.7782227E+04
rotational constants/cm⁻¹ :        0.3209571E-02   0.2714938E-02   0.2166171E-02

 * 79 selected distances

     #   Z          #   Z                                           value/Å
     1   6 C        2   8 O                                       1.4146657
     2   8 O        3   6 C                                       1.3603582
     3   6 C        4   6 C                                       1.3691658
     4   6 C        5   6 C                                       1.4125768
     5   6 C        6   6 C                                       1.4106269
     6   6 C        7   6 C                                       1.3671431
     7   6 C        8   6 C                                       1.4016768
     8   6 C        9   6 C                                       1.3681355
     5   6 C       10   6 C                                       1.4212273
     9   6 C       10   6 C                                       1.4097570
    10   6 C       11   6 C                                       1.4259467
     3   6 C       12   6 C                                       1.4148677
    11   6 C       12   6 C                                       1.3702514
    12   6 C       13   8 O                                       1.4063041
    13   8 O       14  15 P                                       1.5880324
    14  15 P       15  34 Se                                      2.2462216 (max)
    17   6 C       18   6 C                                       1.3851281
    18   6 C       19   6 C                                       1.3824608
    19   6 C       20   6 C                                       1.3857294
    20   6 C       21   6 C                                       1.3846828
    17   6 C       22   6 C                                       1.3846162
    21   6 C       22   6 C                                       1.3842402
    14  15 P       23   7 N                                       1.6322457
    23   7 N       24   6 C                                       1.4737094
    24   6 C       25   6 C                                       1.5240510
    24   6 C       26   6 C                                       1.5241524
    23   7 N       27   6 C                                       1.4680341
    27   6 C       28   6 C                                       1.5240618
    27   6 C       29   6 C                                       1.5245654
    14  15 P       30   8 O                                       1.5917106
    30   8 O       31   6 C                                       1.4061512
    31   6 C       32   6 C                                       1.4191314
    32   6 C       33   8 O                                       1.3555776
    33   8 O       34   6 C                                       1.4124629
    32   6 C       35   6 C                                       1.3710195
    35   6 C       36   6 C                                       1.4108202
    36   6 C       37   6 C                                       1.4105541
    37   6 C       38   6 C                                       1.3671321
    38   6 C       39   6 C                                       1.4021582
    39   6 C       40   6 C                                       1.3680345
    36   6 C       41   6 C                                       1.4189649
    40   6 C       41   6 C                                       1.4102842
    31   6 C       42   6 C                                       1.3744580
    41   6 C       42   6 C                                       1.4254043
     1   6 C       43   1 H                                       1.0932548
     1   6 C       44   1 H                                       1.0922991
     1   6 C       45   1 H                                       1.0879314
     4   6 C       46   1 H                                       1.0777644 (min)
     6   6 C       47   1 H                                       1.0796292
     7   6 C       48   1 H                                       1.0790255
     8   6 C       49   1 H                                       1.0790115
     9   6 C       50   1 H                                       1.0780886
    18   6 C       51   1 H                                       1.0821089
    19   6 C       52   1 H                                       1.0788944
    20   6 C       53   1 H                                       1.0786679
    21   6 C       54   1 H                                       1.0792867
    22   6 C       55   1 H                                       1.0787204
    24   6 C       56   1 H                                       1.0967465
    25   6 C       57   1 H                                       1.0867018
    25   6 C       58   1 H                                       1.0863383
    25   6 C       59   1 H                                       1.0865505
    26   6 C       60   1 H                                       1.0866715
    26   6 C       61   1 H                                       1.0876551
    26   6 C       62   1 H                                       1.0867540
    27   6 C       63   1 H                                       1.0924959
    28   6 C       64   1 H                                       1.0871346
    28   6 C       65   1 H                                       1.0869046
    28   6 C       66   1 H                                       1.0908469
    29   6 C       67   1 H                                       1.0866514
    29   6 C       68   1 H                                       1.0868288
    29   6 C       69   1 H                                       1.0880124
    34   6 C       70   1 H                                       1.0930409
    34   6 C       71   1 H                                       1.0883665
    34   6 C       72   1 H                                       1.0936257
    35   6 C       73   1 H                                       1.0777719
    37   6 C       74   1 H                                       1.0795990
    38   6 C       75   1 H                                       1.0789029
    39   6 C       76   1 H                                       1.0788309
    40   6 C       77   1 H                                       1.0788367

 * 7 distinct bonds (by element types)

   Z      Z             #   av. dist./Å        max./Å        min./Å
   1 H    6 C          35     1.0848557     1.0967465     1.0777644
   6 C    6 C          32     1.4110320     1.5245654     1.3671321
   6 C    7 N           2     1.4708717     1.4737094     1.4680341
   6 C    8 O           6     1.3925866     1.4146657     1.3555776
   7 N   15 P           1     1.6322457     1.6322457     1.6322457
   8 O   15 P           2     1.5898715     1.5917106     1.5880324
  15 P   34 Se          1     2.2462216     2.2462216     2.2462216


optimized geometry written to: xtbopt.xyz


           -------------------------------------------------
          | TOTAL ENERGY             -118.581204470719 Eh   |
          | GRADIENT NORM               0.000047949828 Eh/α |
          | HOMO-LUMO GAP               2.571247888187 eV   |
           -------------------------------------------------

------------------------------------------------------------------------
 * finished run on 2024/12/16 at 20:05:31.918     
------------------------------------------------------------------------
 total:
 * wall-time:     0 d,  0 h,  4 min, 32.315 sec
 *  cpu-time:     0 d,  0 h, 35 min, 59.037 sec
 * ratio c/w:     7.928 speedup
 SCF:
 * wall-time:     0 d,  0 h,  0 min,  2.279 sec
 *  cpu-time:     0 d,  0 h,  0 min, 18.108 sec
 * ratio c/w:     7.947 speedup
 ANC optimizer:
 * wall-time:     0 d,  0 h,  4 min, 29.869 sec
 *  cpu-time:     0 d,  0 h, 35 min, 39.672 sec
 * ratio c/w:     7.929 speedup

