99
 energy: -144.818950081001 gnorm: 0.000013862381 xtb: 6.7.1 (edcfbbe)
C           -2.70687625458925        2.11259977186015        5.39931065491752
C           -1.34786148309436        1.68387877253977        4.86285111268992
O           -1.39927930791024        1.31065646177150        3.49161358821746
C           -1.94402116435386        0.11380504903600        3.15074704533639
C           -2.32044947281259       -0.91398846832450        3.97681798550649
C           -2.71540825260186       -2.15817978433201        3.43944885574294
C           -3.04345082243780       -3.23380825338191        4.29170586837393
C           -3.35062920052812       -4.46444207513920        3.78255042161406
C           -3.32686774075730       -4.68012400867985        2.39707499123348
C           -3.03159435465358       -3.65537645410570        1.54088490315441
C           -2.74837727950107       -2.36499364864601        2.03368365466507
C           -2.44118795185248       -1.26668385778127        1.18107241418564
C           -2.05442332650653       -0.08398716826180        1.75433554476276
O           -1.66430023124514        0.99092061025136        0.92896784138720
P           -0.18774031687273        0.78722895887964        0.40436493747719
Se           1.17264798441330        0.30672679683386        2.15322188096473
S            1.92689672239211       -1.68020291056600        1.69667183072896
C            3.47846146862220       -1.39646714062723        0.85381357410801
C            4.56158157889399       -0.85244337345733        1.55451170149157
C            4.45727722647374       -0.49234193117523        3.00184200856152
C            5.74695971064902       -0.65536739109816        0.87533709473627
C            5.88836066395654       -1.02114870944183       -0.46530228155544
O            7.09541344734654       -0.77712065605816       -1.01651093913994
C            7.33734857351053       -1.17207224433546       -2.34851938223921
C            4.80991739751295       -1.60267528935172       -1.12541005764151
C            3.59864629506764       -1.79412865462715       -0.47700054857804
C            2.46028297197412       -2.43855672240633       -1.20369851366835
N            0.08453297539981        2.15451176846958       -0.46256975568702
C            0.03093803590045        3.34166485844966        0.41627135656641
C            1.38330527010257        3.97108262570141        0.71901570572124
C           -0.99671431092904        4.35278500294742       -0.10484223329864
C           -1.59025895387925        5.18915322595350        1.02329806887108
C            0.90391993719966        2.02658906392233       -1.67723496976972
C            0.69316504442917        3.20622325270132       -2.61638245261319
C            2.38593222550365        1.75484419824970       -1.38616209720874
C            3.09404419988666        1.11485111968087       -2.57325513199777
O           -0.21325196274041       -0.52738834099301       -0.46664043382617
C           -1.41470420710066       -0.99562558351248       -1.05280231637761
C           -1.38530749185958       -1.14140436335358       -2.46335278505182
O           -0.21230875049788       -0.78728218216511       -3.04816646395940
C           -0.08141915306430       -0.87150402506555       -4.46055103800673
C           -0.75559719127338        0.28741971617171       -5.18467977496270
C           -2.49965209016437       -1.63660273231914       -3.09053623460290
C           -3.66906174402697       -1.93498520649807       -2.36267126302604
C           -4.83527514082828       -2.37992243720935       -3.02010641037841
C           -5.98470460024734       -2.61942552171126       -2.32056348740229
C           -6.02159890215098       -2.40810080799153       -0.93479694434642
C           -4.90274999599258       -1.99506212932572       -0.26509014887049
C           -3.69173419000212       -1.77350410068746       -0.95351000604202
C           -2.50197070712760       -1.35012790011555       -0.29238022122034
H           -3.09657098528064        2.93930908939989        4.81058900087839
H           -3.42163254257191        1.29439355496179        5.35877554134186
H           -2.60189047131267        2.43624702107002        6.43050537879265
H           -0.92286697319225        0.86825839963683        5.45811679898000
H           -0.65108363774165        2.52544646156174        4.88248868340609
H           -2.28065093930548       -0.81586619317882        5.04931654572147
H           -3.03519942996737       -3.06857021362173        5.35858608198673
H           -3.59846403134844       -5.28037563730257        4.44360638414976
H           -3.54144811927028       -5.66343421365485        2.00836508794738
H           -3.00642343239122       -3.82877822115663        0.47651899492462
H            4.03638394061737       -1.32056125284297        3.57027217568766
H            3.80363915216112        0.37400523088062        3.14550257511690
H            5.43636563151225       -0.24961693947452        3.40325050736763
H            6.60125653470512       -0.22952096834278        1.37630773134411
H            7.22082573030597       -2.25247040823105       -2.47258964031779
H            8.37006945109666       -0.89602098312513       -2.55224841646648
H            6.67880762540788       -0.64865096877148       -3.04874500897607
H            4.90052110350753       -1.92318691354804       -2.15098578300046
H            2.12016364121979       -3.32234318259626       -0.66665626719397
H            1.61682307008395       -1.75576443346301       -1.28552644286682
H            2.76371510796206       -2.73555328757072       -2.20383430536358
H           -0.36159041243531        2.95512248410015        1.36941363797642
H            2.07956278879734        3.22669557773669        1.10156013695947
H            1.25101346822085        4.73074593034162        1.48477366819467
H            1.81246709066006        4.44912686933467       -0.15611337955192
H           -1.80019853348126        3.79934512797718       -0.59418394158686
H           -0.53774768658452        5.01288556228106       -0.84023397733845
H           -2.06517546547305        4.54905782315481        1.76324944177507
H           -0.82593028645438        5.78302587411086        1.51740804507934
H           -2.33988540795379        5.86791712678973        0.62600823603143
H            0.51029447683566        1.13213420973198       -2.17383876987338
H            1.15469529604896        2.98417863896578       -3.57471753816491
H           -0.36731254891593        3.37796036378556       -2.77742903199579
H            1.14443003505748        4.11454114816009       -2.22985802445877
H            2.44673278082775        1.06610892178894       -0.53414983192096
H            2.90453095077120        2.67320441729899       -1.11443222792864
H            4.11626401443899        0.86896804132340       -2.29850530019129
H            2.58747373685345        0.20001349839132       -2.86938053053416
H            3.12292339249216        1.79193906637977       -3.42259138498007
H            0.99800771375879       -0.83975481894708       -4.63083628548642
H           -0.45793330862183       -1.83560591039479       -4.81757645714381
H           -0.33131542338675        1.23244907854615       -4.85539055858867
H           -0.59550833363264        0.18565093417379       -6.25394476544179
H           -1.82500556462406        0.30488553883116       -4.99043707586703
H           -2.51880168503242       -1.78940439864695       -4.15712295449168
H           -4.80534532591277       -2.51731791696164       -4.09062374292321
H           -6.87296807711906       -2.95745785704342       -2.83128572382271
H           -6.94271454289127       -2.57004609001739       -0.39692997039322
H           -4.94415574645506       -1.82321436263757        0.79888053280869
