68
 energy: -98.723821244923 gnorm: 0.000047845318 xtb: 6.7.1 (edcfbbe)
C            2.61834332826345        3.18409427000202       -1.37259720756872
C            2.43424835921832        2.36625346276352       -0.10067607941241
C            3.38102429970445        2.84583527973175        0.99834617907941
N            1.02454277296542        2.28099812614594        0.32367354581747
C            0.12353848512367        3.42883401966259        0.53526304346506
C            0.75536478968064        4.60803967024099        1.26098753218847
C           -0.51534291253894        3.85150348102905       -0.78716367329478
P            0.66402163172437        0.81928151712822        0.96803108599203
Se           2.07405416355708       -0.15250055408973        2.46393666000089
S            1.45620160786240       -2.21700353889896        2.39704824517352
C            2.09294720807237       -2.83292835822062        0.84146921168010
C            3.27311228789277       -2.38306470342289        0.27697666917016
C            3.68762761295626       -2.90952410024062       -0.93360696381501
C            2.93516663994038       -3.88567496933088       -1.56602153713368
C            1.76566499425876       -4.34459761577590       -0.98282785629420
C            1.33769376797268       -3.81697585076965        0.22259914578928
O           -0.82555890718610        0.95775615493124        1.47465296075836
C           -1.35472884184506       -0.21249496277397        2.07913520602095
C           -1.22191790640512       -0.37915758742948        3.45137285657513
C           -1.63916665140908       -1.55936628707813        4.04115053333691
C           -2.13404812445511       -2.59759198883413        3.26370091842199
C           -2.26574097142374       -2.41452836689476        1.90237544837338
C           -1.91425821932226       -1.20257572834488        1.30114167866204
C           -2.28366180115311       -1.21625111919063       -0.15444986251633
C           -2.26692321085721       -2.73726041765639       -0.45092247702241
C           -2.72336730290039       -3.39039682692908        0.86137911495159
C           -3.70174318460863       -0.64032014682385       -0.39005766500482
C           -3.75362514594186       -0.36437217751625       -1.89890345008824
C           -2.32266036924097       -0.07669126846920       -2.23772242653835
C           -1.81003512256056        0.50719677166320       -3.37763862961273
C           -0.44087468192144        0.71828822266019       -3.46841926848623
C            0.38530648843880        0.41961335992719       -2.39995644461005
C           -0.14569033563233       -0.14898042459238       -1.25006873287179
C           -1.48888426178886       -0.45453973646367       -1.17942168390867
O            0.70610728509005       -0.33159029381870       -0.13251119851645
H            1.91427303314218        2.87879463432540       -2.14076603700858
H            3.62815543408009        3.02929916450266       -1.74448804838597
H            2.49342044865742        4.24486361438511       -1.17948936384706
H            2.69977912277113        1.32163400015031       -0.32931240744263
H            4.39712248642216        2.55392861291490        0.74569295683198
H            3.35998354744979        3.92477552699027        1.10711721891444
H            3.12601208127754        2.39291555290987        1.95790608863306
H           -0.67876078060766        3.04666999791030        1.17155956799807
H            1.21384016097287        4.29247860188185        2.19435663382617
H           -0.02794906957415        5.32473636946753        1.49477752494839
H            1.49329340155059        5.11379307919017        0.64649975525183
H           -1.36254201272971        4.49959928350290       -0.57981112507205
H           -0.87359931118125        2.97846168987037       -1.32899966934758
H            0.18102474729381        4.39559463006994       -1.41598528064867
H            3.86756360780672       -1.63004105574532        0.77771547994770
H            4.60674280642396       -2.55946956710762       -1.37786864935432
H            3.26389859712298       -4.29259111106644       -2.50939971610872
H            1.18222250186796       -5.11287137788626       -1.46654029108176
H            0.43453494128393       -4.16965657676763        0.69658307968270
H           -0.79029412883950        0.41606313937122        4.04053125857781
H           -1.54136111427889       -1.68136877025775        5.10766650099819
H           -2.40476660356898       -3.53728780074607        3.71859440372895
H           -1.24546851219823       -3.04179437458067       -0.68786450514522
H           -2.90313241280321       -2.99506469529424       -1.29368408394350
H           -2.29435584102777       -4.38095237435357        1.00929096810456
H           -3.80982905451057       -3.49607172074897        0.89534640574796
H           -4.48001474207648       -1.32182102165661       -0.05639477725876
H           -3.80545606139949        0.29570284182707        0.16214142783973
H           -4.40784254915804        0.47017937195690       -2.14835903751095
H           -4.10697658740792       -1.23664720294939       -2.45270368148312
H           -2.46279009525145        0.79623110146152       -4.18618620212127
H           -0.01867745288152        1.14959666110785       -4.36214490578386
H            1.44521163943236        0.61101246258519       -2.44605936809570
