77
 energy: -109.202830856579 gnorm: 0.000027638849 xtb: 6.7.1 (edcfbbe)
C           -4.25301672673449       -2.34354121185471        0.08285022387062
C           -3.01800802975136       -3.14910385120253       -0.31171390146595
C           -2.57102828241631       -4.06396787483551        0.82117041123456
N           -1.90927211784435       -2.29957200460588       -0.77145245335272
C           -1.61620570180479       -2.24707180290292       -2.21845849497135
C           -2.79868203905993       -1.69774054190334       -3.01276337637527
C           -1.18323001615938       -3.59870736136774       -2.78191104316839
P           -1.04694897825872       -1.24125777117302        0.15579903300437
S           -2.05534838838367       -0.85149717396765        2.00738838002294
S           -0.87449759821617        0.53996647066416        2.92528796561799
C           -1.63236945338598        2.09586832290643        2.48836432253097
C           -3.00393585331378        2.27777097624999        2.56179157767167
C           -3.53527503506571        3.51534562620458        2.24524419310180
C           -2.70070939662128        4.55997688480263        1.87980482705024
C           -1.32926164065672        4.36948705986494        1.82407402929229
C           -0.78622436823549        3.13153522000986        2.12188372621145
N            0.49828739776076       -1.80550458189683        0.37165250923664
C            0.82647040397020       -3.22149508793168        0.37596464031202
C            1.31113154020536       -0.94891100269991        1.18569458987685
C            1.61727325387854       -1.29667266884196        2.51364191282594
C            2.33186077920445       -0.43775160555606        3.29697141437642
C            2.71950437306852        0.82858130056274        2.81150478342656
C            3.37445913055586        1.76646064328833        3.63630061873072
C            3.70816357736738        3.00314541713314        3.15942078534045
C            3.39580758524530        3.35635956492034        1.83775232592014
C            2.77374839764350        2.46507380032970        1.00756755847065
C            2.43085395625787        1.17425062057416        1.46497844738982
C            1.76530745531716        0.22897218472649        0.63601159203649
C            1.57651615194035        0.48438650920745       -0.80233905186126
C            0.31512275228507        0.51048185346745       -1.35362252309142
C            0.13244903596371        0.81939577220878       -2.71527254574444
C            1.20770611714911        1.07860368755791       -3.51354164888062
C            2.52091885088455        1.00011331363341       -3.00676569916848
C            3.64304740252097        1.21941923377467       -3.83201046022315
C            4.90966179619915        1.10473880430647       -3.33209185573169
C            5.10392246885740        0.75041026999361       -1.98887319168724
C            4.03583179703413        0.54127155800867       -1.16074099467412
C            2.71462678094256        0.68056219674939       -1.63733490930792
N           -0.82544381211553        0.24868371545390       -0.53027462540933
C           -1.95534998651338        1.16057377135267       -0.64317350221167
H           -4.10860144555874       -1.85391881434145        1.04233126149457
H           -5.10573963776139       -3.01167235997889        0.17042341964834
H           -4.48423054506553       -1.59273187134377       -0.66756167367666
H           -3.28354492499261       -3.77028014525156       -1.17025590932055
H           -2.16373451449022       -3.47896191854321        1.64377751455400
H           -3.42270351210330       -4.62591399946661        1.19404892411210
H           -1.82053612938439       -4.77210107203285        0.47939048152501
H           -0.76487249352862       -1.56363728144744       -2.32581262008245
H           -2.49175692455989       -1.51458255599532       -4.03908907359757
H           -3.15549146326620       -0.76340917535218       -2.58665902857222
H           -3.62268279820070       -2.40601521055458       -3.02820935782496
H           -0.28719028971308       -3.96801439513191       -2.29188435935915
H           -1.96655546931037       -4.34607730290427       -2.69001763636322
H           -0.95901739816957       -3.47861366268879       -3.83840502459255
H           -3.64498416286867        1.46130487841049        2.86060436527262
H           -4.60238193971212        3.66528703564417        2.29772220566786
H           -3.12021803778906        5.52542655394476        1.64384940733156
H           -0.67759464754690        5.18312773585805        1.54562902542960
H            0.28009396438410        2.96673900334800        2.08120534633058
H            0.12241258337895       -3.74757136241618       -0.26213334822979
H            0.79367804254621       -3.66589626683229        1.37184282175659
H            1.83392929179570       -3.33668387070099       -0.02577565404280
H            1.27237983468634       -2.23634826594327        2.91612862249754
H            2.57763557517816       -0.70488899814606        4.31299245083297
H            3.59708187129041        1.48983910286644        4.65582271860020
H            4.20582538253907        3.71787941967846        3.79635847358321
H            3.64816169478022        4.34247168859272        1.47865951190168
H            2.52804275930253        2.74623261181464       -0.00550027261474
H           -0.86295255942879        0.85480858411246       -3.12924122925014
H            1.06353375356519        1.32936905785274       -4.55343730576091
H            3.47927281064614        1.47311086358036       -4.86871688130034
H            5.76548354024815        1.27385166402302       -3.96703861888006
H            6.10835745240108        0.63891869755674       -1.61016491665307
H            4.20082519945336        0.25770300247473       -0.13284341007771
H           -2.74024804399166        0.85351480176224        0.04846211571485
H           -2.37889012238681        1.17909772436835       -1.64799345269740
H           -1.63065027611749        2.16999786606866       -0.38546548361198
