76
 energy: -113.588902562657 gnorm: 0.000016708430 xtb: 6.7.1 (edcfbbe)
C           -0.24749441644228       -1.67429644593881       -2.69915297354766
N            0.00427667606500       -0.77195363631009       -1.57954226525893
C            1.03693898073314        0.20109309365700       -1.71340773284144
C            1.34347208151785        0.72410749156804       -2.98436998554812
C            2.33511417036317        1.65015393616934       -3.13189460409399
C            3.04093371618484        2.13998682833932       -2.01423369580089
C            4.02107741866783        3.14558687800883       -2.14248765460109
C            4.67049810934939        3.63019017331099       -1.04218237542265
C            4.35489363585013        3.13651764286611        0.23257877386162
C            3.41613191906454        2.15445924479104        0.38824697288701
C            2.74467146001057        1.61362804297749       -0.72972326323937
C            1.76477453752076        0.58755551159507       -0.60485891148118
C            1.53621957180281       -0.03718547782604        0.71198784017694
C            0.29482148356242        0.06660189347701        1.29694407076694
C            0.03412076153151       -0.43844126913974        2.58110247793369
C            1.03599877788308       -1.04831197758212        3.27989537007436
C            2.31518359387526       -1.22211194647107        2.70752736484646
C            3.34363303176667       -1.89343173952886        3.40077682738685
C            4.56774597103417       -2.08362398153910        2.82287163827458
C            4.81176339842170       -1.62211551893604        1.52069136193442
C            3.83930155239031       -0.95978372329541        0.82370493841766
C            2.57376109034657       -0.72506368856330        1.40131416537565
N           -0.75279060693768        0.64721517035566        0.50197125545583
C           -1.47494307385634        1.80028892111222        1.00336864344087
P           -1.26272714268739       -0.52742800237639       -0.54362869552740
S           -2.98673328637229        0.09830901447911       -1.60397352898169
S           -2.08060370746068        1.26235604695545       -3.03849507685811
C           -2.04281957128535        2.86329114862491       -2.24232821516236
C           -3.22949163412888        3.47967704783786       -1.87789645346281
C           -3.18102547510429        4.71812290495093       -1.26291251146765
C           -1.96029486896412        5.33285843391853       -1.03042459226751
C           -0.78186257764649        4.71018577503806       -1.40919293591075
C           -0.81619793545447        3.46616752877550       -2.01576445978538
N           -1.53863779041617       -1.99735674414196        0.17122572827998
C           -0.52155682167679       -3.03820048835281        0.29151261168108
C           -1.09510919504089       -4.36069575675162       -0.20253030832450
C           -2.24911692944340       -4.76980654577019        0.70588734853567
C           -3.16592481952966       -3.61544118551724        1.00300579713336
C           -4.41386392850631       -3.85485256139682        1.56617258734060
C           -5.27262457087945       -2.82177721618987        1.89114398784743
C           -4.88004917400495       -1.51215148679557        1.67476504064391
C           -3.63942968088008       -1.25475520567297        1.12380579289125
C           -2.78957324251670       -2.29351216740415        0.76501033471484
H           -0.95762821891164       -2.43802828136190       -2.38355803444313
H            0.68740022909573       -2.15314209577182       -2.98948471122652
H           -0.67015110499049       -1.16115192792746       -3.56589093545634
H            0.78607957110361        0.40036998323189       -3.84761657196585
H            2.57085164020730        2.03866933884597       -4.11097099564965
H            4.24141006358305        3.52821558227968       -3.12787405283524
H            5.42023433311854        4.39936440740828       -1.14437260994267
H            4.85831971102981        3.54152437323698        1.09706493316795
H            3.17471228306157        1.79252663847459        1.37579879748893
H           -0.95664554059592       -0.33979403231491        2.99998992040198
H            0.85518495727235       -1.42684928550268        4.27446733715688
H            3.14215470944548       -2.25741305478405        4.39718057705323
H            5.35064515249222       -2.59584823713806        3.36032792489413
H            5.77658376214165       -1.79467888138566        1.06923008560369
H            4.03182424298313       -0.61172859103050       -0.17950483047009
H           -1.81083756746904        1.65316125239997        2.03185725604283
H           -0.81752904149601        2.67116906901563        0.96885381522642
H           -2.34084144141919        1.99706824562729        0.37187189883033
H           -4.17409956814066        2.99263062426706       -2.06982290361383
H           -4.09909763527800        5.20615502195975       -0.97512883847375
H           -1.92918254250572        6.30215824477511       -0.55772002215651
H            0.16920275938483        5.18902934529787       -1.23352598171142
H            0.09425682235773        2.97169219189875       -2.31618722403672
H           -0.23718457064792       -3.13187367059552        1.34566851825945
H            0.36443217390147       -2.74149627769911       -0.27113327588949
H           -0.31717489342389       -5.12373258652508       -0.19846048442462
H           -1.45561208107599       -4.24850022682693       -1.22686626232717
H           -2.81846313029541       -5.58182631047236        0.25124547856750
H           -1.85286379129424       -5.14642599942205        1.65392009122245
H           -4.71012061698819       -4.87692837231874        1.74778286285675
H           -6.23814354181811       -3.03550014043145        2.32050741553544
H           -5.52920354126559       -0.69341250439946        1.94169409887290
H           -3.31097607224248       -0.23146180622164        0.99415003300681
