83
 energy: -115.548519505610 gnorm: 0.000038774903 xtb: 6.7.1 (edcfbbe)
C            6.15119584419562       -2.82664585917098       -0.93211629295875
C            5.00284839780984       -2.19080979401398       -0.21810124244036
C            3.72606177419231       -2.73129519637357       -0.30145831681622
C            2.65077559826216       -2.16477176050173        0.36420195053664
C            1.30047256042621       -2.80523362736515        0.29467474863220
C            2.87709408208879       -1.01660833032753        1.12730850458193
S            1.48560208268885       -0.30453146511939        1.99615806151921
S            1.44063032471565        1.63816045029222        1.33859386792121
P           -0.14874683892660        1.73493036122868       -0.09287094742307
N           -0.15643512398025        3.09523829697183       -1.03939838039152
C           -0.83730900384358        2.91133307675226       -2.32008922787327
C            0.70745115886037        4.28550755745722       -0.85148955406439
C            0.23790661804256        5.43242126943730       -1.74868339217981
C            0.58495751638450        4.74322607784198        0.59966861608567
C            2.15438148001347        3.93367728443375       -1.19918268051478
N           -0.01201134100999        0.32034447574288       -0.95607142293558
C            1.23510294392042        0.14616642125050       -1.69269441193002
C           -1.17473171007975       -0.36508950296100       -1.42250932236130
C           -1.34132282607496       -0.57582271862233       -2.80531142866186
C           -2.44392554630134       -1.22394911060779       -3.28032397978053
C           -3.46462791868687       -1.64864267306150       -2.40665123979009
C           -4.64060685352363       -2.26076454312009       -2.88726604258331
C           -5.63465014618206       -2.63274397668851       -2.02685501781272
C           -5.49718865226075       -2.39392332503685       -0.65121260103111
C           -4.36334263610634       -1.81418235215848       -0.15343015357173
C           -3.30507328791450       -1.44357270021476       -1.01138380112761
C           -2.10733057449145       -0.84542476632838       -0.52460841570154
C           -1.88493420152129       -0.74619780711427        0.93029633092776
C           -1.70567778337177        0.49235083268693        1.50247404369612
C           -1.55623707457157        0.64923592675691        2.89045650287626
C           -1.57363365411492       -0.44820541123896        3.70119943751798
C           -1.70182273460168       -1.74418390051334        3.15884815137992
C           -1.66969005835490       -2.88830580696199        3.98289554227836
C           -1.76586443537443       -4.14076890038704        3.44498610268761
C           -1.88817324452339       -4.30186409038549        2.05670778942037
C           -1.92931647443236       -3.21344738201406        1.23036979754935
C           -1.85318407961460       -1.90566659037129        1.75579934421032
N           -1.63363364425059        1.62257645744380        0.62271776488782
C           -2.48448581226420        2.76512901603771        0.90516116692993
C            4.15539873667611       -0.47380550707697        1.27328175502768
C            4.43135611011311        0.71411188846466        2.13942553349835
C            5.19703152796805       -1.06995344603214        0.57727499447595
H            5.81380233995420       -3.36551435683579       -1.81369188926052
H            6.64348648032876       -3.53960773355218       -0.27050568236748
H            6.88718101415896       -2.08288508433969       -1.22684698510215
H            3.56466601222884       -3.62141888043369       -0.89149402905985
H            0.51081597570027       -2.06498513270530        0.19507246987247
H            1.24657035112584       -3.50100223461440       -0.53853421374165
H            1.10779426009768       -3.36081900933202        1.21276345124752
H           -1.42385110227862        1.99306391416187       -2.29113974079536
H           -1.52971719065740        3.73219044350425       -2.50058189991645
H           -0.13430011267333        2.85936926424669       -3.15450462492498
H           -0.80564547275890        5.67607718129124       -1.56722806623936
H            0.82875777928658        6.31356235826998       -1.51430998160169
H            0.37774550404197        5.21091687240560       -2.80231589971743
H            1.27988398852418        5.55605426992164        0.79048805536917
H            0.81966004421985        3.93518080350634        1.28922918294914
H           -0.42237145050358        5.09878369728614        0.80229688320584
H            2.54449748164841        3.19130705777737       -0.50719158176596
H            2.78016748689805        4.81922714397997       -1.13898838515733
H            2.21801702616207        3.54145161657784       -2.21189443015679
H            1.27017754078515        0.72990740099415       -2.61564041581020
H            1.36366346103657       -0.90755477239058       -1.93384711222279
H            2.07012133861495        0.45961697107951       -1.06442792537855
H           -0.58779164777670       -0.22786079152548       -3.49371114153594
H           -2.55633940030979       -1.39678844404438       -4.33976912637595
H           -4.74127693331105       -2.42053514798754       -3.95042715551055
H           -6.53339181294645       -3.09984813237259       -2.39868166247761
H           -6.29900174279858       -2.66860392091343        0.01691824274003
H           -4.27579918128000       -1.62571735447897        0.90545001547765
H           -1.41897890580510        1.63740145657440        3.30323436142081
H           -1.46553823321914       -0.33826077781381        4.76918948241158
H           -1.56198014190704       -2.75278430388970        5.04863017188099
H           -1.74102381502366       -5.01199158457843        4.08122985638288
H           -1.94719978142483       -5.29631720481286        1.64135488405801
H           -2.01424625885411       -3.34946417549357        0.16326737727119
H           -2.30545109593814        3.53022377067509        0.15330693737730
H           -2.31269185788680        3.18980194643540        1.89578510803772
H           -3.52270166329175        2.43764762161274        0.83998078025032
H            4.28654066469281        1.64165858842412        1.58424466068116
H            5.46106020736812        0.69058337523018        2.48566091928025
H            3.77136899573003        0.73392184498477        3.00435598084881
H            6.18900774806653       -0.65398440603660        0.67248099353946
