68
 energy: -103.018548053336 gnorm: 0.000043660188 xtb: 6.7.1 (edcfbbe)
C           -0.73997535556452       -3.71810589624652        0.28673615420763
C            0.74226462547368       -3.63440981726878       -0.05935430457379
C            0.99560591137525       -3.83365112126748       -1.54926744641199
N            1.30201699349081       -2.37374485827844        0.45540462706231
C            2.52950156935816       -2.43640940573490        1.27361390236774
C            2.26651337000325       -3.20053631003447        2.56904650805635
C            3.71692793881133       -3.02654874211386        0.52055673877630
P            1.08973787846912       -0.94311789665350       -0.30615285496170
S            2.64266194391777       -0.19861814513157       -1.54551950340329
S            3.38014933546727        1.38096365219868       -0.48950156355998
C            2.33178267231611        2.70507435621179       -1.07359791424196
C            2.30639394784872        3.03141977764018       -2.42023639304887
C            1.51567121487041        4.08338307141337       -2.84735465129956
C            0.75899812400200        4.80662640646239       -1.94110393642374
C            0.80182006537002        4.45253143877671       -0.60396715286161
F            0.05355921071059        5.13198881694219        0.28010191880707
C            1.57811226611424        3.40307076351621       -0.14581623718353
O           -0.23442494176229       -1.08811096732989       -1.13978122450007
C           -0.65451369802132        0.08247639634608       -1.82348411698761
C           -0.22962778202351        0.29510140559310       -3.12798567997399
C           -0.59271553855154        1.45756707108704       -3.78390384991660
C           -1.33135038068179        2.43501347472926       -3.13091677998410
C           -1.73500417967460        2.21595616038317       -1.83013587421241
C           -1.42595025865242        1.02045572261028       -1.17378179417271
C           -2.07712252178759        0.98249420633220        0.17824733889069
C           -2.24303029191200        2.49709145842682        0.46773164332913
C           -2.48567514468883        3.12740130497459       -0.90950027123093
C           -3.46466603739878        0.29747417312191        0.14548690141038
C           -3.78877277840028        0.03807375339136        1.62346685470731
C           -2.43418531101232       -0.12652662172515        2.24274626438105
C           -2.11413470828890       -0.63174393795491        3.48561951708075
C           -0.77766632530015       -0.72867758676239        3.84816464371164
C            0.21770373834093       -0.41545094834933        2.93990660194192
C           -0.11867603992203        0.06106451989544        1.68046854544454
C           -1.43886909864204        0.28139428884148        1.34665513078195
O            0.92350410994558        0.24477189248753        0.72504327596101
H           -1.11078669006082       -4.71292711526505        0.05559098210057
H           -1.31582625330602       -2.99556967857285       -0.28318237769353
H           -0.89162460417219       -3.52803430125672        1.34660465139143
H            1.26318360457030       -4.42255195109938        0.48793026315279
H            2.04354086751119       -3.66904478420267       -1.78966834756607
H            0.73669188443757       -4.85207258110590       -1.82740948617361
H            0.38653502236287       -3.15780101448438       -2.14245110771573
H            2.76670981887486       -1.39272503588849        1.52172163839003
H            2.26013347752659       -4.27361502952389        2.39959395842097
H            3.05576242869576       -2.98213116338198        3.28302910977998
H            1.31238300028852       -2.91226361927995        3.00136815844455
H            3.91771239833100       -2.47378615050565       -0.39462608028376
H            3.54389408757539       -4.06948970937936        0.26947293272201
H            4.60037902518938       -2.97368046187338        1.15101996102524
H            2.90370445489718        2.47039767082187       -3.12204056974654
H            1.50050191820399        4.34961700296360       -3.89200456053044
H            0.15006897331931        5.63943162964270       -2.25419756189242
H            1.60321783928563        3.15258869618271        0.90260169994712
H            0.37858846253720       -0.45173701966210       -3.61437189689195
H           -0.27453148618908        1.61021936952314       -4.80251121071208
H           -1.58336785604842        3.35512371446756       -3.63377236022464
H           -3.04895626972856        2.69431217830249        1.16912173881443
H           -1.31880917177449        2.88753377853377        0.89581275293682
H           -2.13576352500621        4.15672642167496       -0.96321688062326
H           -3.54762340085286        3.12811472535087       -1.16460584618519
H           -3.38732661722489       -0.65009000959263       -0.39115570910791
H           -4.21180586337875        0.91115530119175       -0.35097402009712
H           -4.31405219091822        0.88341713360727        2.07218960561770
H           -4.40940985887716       -0.84599550453752        1.76519632047017
H           -2.89011435136659       -0.94221451555712        4.16733282724210
H           -0.50723419432696       -1.08462754206156        4.82955564319546
H            1.25765954602844       -0.52402529156699        3.20080975379652
