68
 energy: -102.995458510887 gnorm: 0.112817891972 xtb: 6.7.1 (edcfbbe)
C           -0.56857000000000       -3.74362900000000        0.38812500000000
C            0.88484500000000       -3.60980100000000       -0.07338900000000
C            1.01757000000000       -3.86402500000000       -1.57871600000000
N            1.44525400000000       -2.31468000000000        0.33989100000000
C            2.66566200000000       -2.40440300000000        1.16157100000000
C            2.44083400000000       -3.15617200000000        2.48278000000000
C            3.85975000000000       -3.01403200000000        0.41904100000000
P            1.05846400000000       -0.88888900000000       -0.40676700000000
S            2.56457900000000       -0.31019200000000       -1.76149900000000
S            3.53241200000000        1.14967100000000       -0.68602500000000
C            2.54516400000000        2.59530300000000       -1.04191900000000
C            2.43701700000000        3.09049900000000       -2.34851800000000
C            1.66819500000000        4.22697600000000       -2.61735200000000
C            1.00260600000000        4.87277500000000       -1.57860900000000
C            1.11880400000000        4.38169200000000       -0.28244100000000
F            0.47127500000000        5.00260800000000        0.71467200000000
C            1.88391500000000        3.25452000000000       -0.00340200000000
O           -0.37105400000000       -1.05906100000000       -1.16227100000000
C           -0.86901100000000       -0.00075800000000       -1.85659800000000
C           -0.57386000000000        0.12874000000000       -3.21513200000000
C           -0.96588500000000        1.27527500000000       -3.91828600000000
C           -1.64753000000000        2.30194700000000       -3.26641800000000
C           -1.95219200000000        2.14032300000000       -1.92339000000000
C           -1.61413900000000        0.96956600000000       -1.22253800000000
C           -2.19704300000000        1.00832700000000        0.16060300000000
C           -2.32201700000000        2.54592000000000        0.34895000000000
C           -2.66380500000000        3.11358700000000       -1.03663800000000
C           -3.59349900000000        0.33333300000000        0.23107300000000
C           -3.89991000000000        0.17763900000000        1.72782700000000
C           -2.51991900000000       -0.02842300000000        2.27576600000000
C           -2.18970600000000       -0.51032200000000        3.53377500000000
C           -0.84172700000000       -0.63861600000000        3.85666000000000
C            0.14271200000000       -0.33598700000000        2.90665400000000
C           -0.20822400000000        0.10468600000000        1.62993100000000
C           -1.53659800000000        0.34627200000000        1.33944900000000
O            0.78092300000000        0.26287100000000        0.70943500000000
H           -0.92823800000000       -4.76257400000000        0.19953400000000
H           -1.24006800000000       -3.06214600000000       -0.13837900000000
H           -0.65900100000000       -3.55440300000000        1.46388900000000
H            1.42409800000000       -4.43307400000000        0.40862600000000
H            2.05825100000000       -3.77122100000000       -1.90593400000000
H            0.68952700000000       -4.88207500000000       -1.81813300000000
H            0.40750900000000       -3.18260200000000       -2.17773300000000
H            2.94934100000000       -1.38251300000000        1.44187100000000
H            2.36629000000000       -4.23968200000000        2.34146400000000
H            3.27926200000000       -2.97593900000000        3.16549700000000
H            1.53031000000000       -2.82425100000000        2.98830500000000
H            4.07685000000000       -2.48135700000000       -0.50948400000000
H            3.69564200000000       -4.06732100000000        0.17259400000000
H            4.76059500000000       -2.96113900000000        1.03968800000000
H            2.95024300000000        2.59179400000000       -3.16874000000000
H            1.58632300000000        4.60085900000000       -3.63482700000000
H            0.39544500000000        5.75225200000000       -1.76688300000000
H            1.94351600000000        2.89366200000000        1.01838200000000
H           -0.01389800000000       -0.64995800000000       -3.72595600000000
H           -0.71721000000000        1.37317300000000       -4.97191800000000
H           -1.93061800000000        3.20371200000000       -3.79942200000000
H           -3.06487700000000        2.84533200000000        1.09605700000000
H           -1.36043700000000        2.96136400000000        0.68207400000000
H           -2.28870700000000        4.13485000000000       -1.15156000000000
H           -3.74098100000000        3.08602400000000       -1.22980700000000
H           -3.55215200000000       -0.66479800000000       -0.23163100000000
H           -4.38528800000000        0.88757900000000       -0.28608600000000
H           -4.34906100000000        1.08354800000000        2.14760400000000
H           -4.55060200000000       -0.68276000000000        1.91100200000000
H           -2.95856500000000       -0.77554800000000        4.25245200000000
H           -0.54828500000000       -0.99669000000000        4.83957400000000
H            1.18949300000000       -0.46764100000000        3.16198400000000
68
 energy: -103.009732898178 gnorm: 0.057826441921 xtb: 6.7.1 (edcfbbe)
C           -0.58310376082316       -3.75131068499401        0.38647121904144
C            0.86430469749872       -3.63156239486386       -0.07926015182311
C            1.01353621064173       -3.86355659403835       -1.58228289953724
N            1.42592228833284       -2.34952396424212        0.35980730862844
C            2.66316881259806       -2.40023674304418        1.16439831697932
C            2.43056422075491       -3.15208543376678        2.47867103396653
C            3.84913643306191       -3.00846527997913        0.41221827854065
P            1.04557301376459       -0.93362086611437       -0.38827433243912
S            2.50961838964567       -0.21908009673283       -1.73137170322506
S            3.55061471343815        1.19219170691703       -0.67797138629561
C            2.53507724341155        2.61158222593250       -1.04876429697929
C            2.43096353404463        3.09159079924672       -2.34921969738001
C            1.66122775986071        4.21514242156975       -2.61212660017765
C            1.00073941504835        4.86534857376178       -1.58175704201828
C            1.12051288306252        4.37524579227031       -0.29071533041020
F            0.47283040080071        4.99101200554477        0.70830459004931
C            1.87703572579447        3.25087261109244       -0.00756937649194
O           -0.36437011179301       -1.09698404941133       -1.15063638577358
C           -0.85570674917518       -0.00455113468470       -1.85515733417420
C           -0.55250564052497        0.13621128819864       -3.20898173728953
C           -0.96038675647575        1.26317583678279       -3.91016032480865
C           -1.64167983822613        2.28524312644819       -3.26297401173741
C           -1.95699115709912        2.12769683037019       -1.92809840499939
C           -1.60793930013262        0.96926565390012       -1.22244497534818
C           -2.20045168291271        1.01115261284906        0.16096525387366
C           -2.32682902149902        2.54488267737344        0.36798751379961
C           -2.65300447346457        3.09870649818372       -1.02642048816695
C           -3.59911176245376        0.34240761348554        0.21487715910957
C           -3.88306441811608        0.17925548881826        1.71472353450826
C           -2.50928417034577       -0.01341646833897        2.28067262090396
C           -2.17454291279076       -0.50116337792580        3.52837980660175
C           -0.83121599523924       -0.63046531903267        3.84997446469085
C            0.14482169989944       -0.35170696615724        2.90302945127765
C           -0.20037281514717        0.10196037532210        1.63133139605751
C           -1.53306075485906        0.34631199987866        1.33993118298492
O            0.81001530523169        0.24998349194537        0.68887747234464
H           -0.93729438083301       -4.76428477889992        0.19993133624309
H           -1.23481100029405       -3.05849877188563       -0.14135477460431
H           -0.65746609326909       -3.55270888673444        1.45576455617858
H            1.43537097761555       -4.41654919257569        0.42252137642650
H            2.05304091210733       -3.76076285637643       -1.89480288272887
H            0.69022263543503       -4.87654928335701       -1.82015315286678
H            0.40368467995568       -3.17398009768191       -2.16353093285593
H            2.92422267369763       -1.36329480078851        1.41856019867900
H            2.36524411830019       -4.22890313329003        2.33031296268455
H            3.27093106396929       -2.96585962014538        3.14686742661847
H            1.52052307747785       -2.81971745338213        2.97480558725067
H            4.05919668483481       -2.47567381609106       -0.51397374711932
H            3.68259548751253       -4.05841493303549        0.17646519454081
H            4.73921990289212       -2.95030645669941        1.03795394038817
H            2.94934088894390        2.59302891558405       -3.15771762294409
H            1.58931135251442        4.59169094692067       -3.62193079526367
H            0.40317160250991        5.74656784359770       -1.76670416976990
H            1.95065109122323        2.89422967941446        1.01055610303109
H            0.00167740836209       -0.64213986600345       -3.71449810142043
H           -0.71896514778270        1.35583095629431       -4.95946508209940
H           -1.91817488388692        3.18614436181066       -3.79190874523725
H           -3.07076654746336        2.82261595877771        1.11395879701854
H           -1.36300679582943        2.94522402889041        0.69618603484900
H           -2.29324033625102        4.11973477793117       -1.15514412347743
H           -3.72739194441896        3.08710864479903       -1.22129382928890
H           -3.54211728882286       -0.64893383172117       -0.24715311473390
H           -4.37267718778884        0.90838273083428       -0.30409066253395
H           -4.34435345512990        1.07388928138852        2.13741046882092
H           -4.53666893801351       -0.66993476737852        1.91645976681520
H           -2.94168384504708       -0.77632432906040        4.23825093688423
H           -0.53949286418099       -0.98380759278413        4.82867537204624
H            1.18766372584749       -0.47931691491714        3.15300655418627
68
 energy: -103.014126640459 gnorm: 0.027642122884 xtb: 6.7.1 (edcfbbe)
C           -0.60067872986277       -3.76248286494006        0.38023477400414
C            0.84398575824747       -3.64530567816655       -0.08320479067916
C            1.00462868735355       -3.86364731732352       -1.58295590743995
N            1.40077991081924       -2.36564583820499        0.37457068572882
C            2.65101358577289       -2.39020844753583        1.16393593856102
C            2.42453664708364       -3.13841972006802        2.47694087225549
C            3.83153601420014       -2.99382236424293        0.40496669733998
P            1.03784344670245       -0.95417624872274       -0.37111970471118
S            2.47616426368508       -0.22905035427916       -1.74364075240554
S            3.48405923911198        1.17865772845215       -0.67357060472442
C            2.53376947602044        2.64225081187937       -1.04209666173477
C            2.43132282586452        3.09946720153097       -2.34365876913382
C            1.65700745252292        4.21245817291511       -2.60686863376260
C            0.99303940344372        4.86561133706884       -1.58434214739901
C            1.11079556870358        4.37776445364219       -0.29507874148569
F            0.45696051210345        4.98859952169359        0.70337770756303
C            1.87244372957708        3.26367503851867       -0.00066608303270
O           -0.34658507672049       -1.12640685376322       -1.13498755326312
C           -0.83618591392228       -0.00653110989115       -1.84974056246299
C           -0.52583357105799        0.13560465380283       -3.19855663031190
C           -0.94427172933644        1.24961191679886       -3.89909721135567
C           -1.62737687248079        2.27028307678022       -3.25621541619354
C           -1.94801563692267        2.11889497731896       -1.92533100747956
C           -1.59114443895990        0.96683422156759       -1.21848228894388
C           -2.19022605030829        1.00934147368307        0.16160268769558
C           -2.31991778566251        2.53939229113233        0.37810977468360
C           -2.64106352317575        3.08790154943384       -1.01782234964828
C           -3.58988894786425        0.34600179086212        0.20543737193643
C           -3.86741581449966        0.18069061966374        1.70467602364110
C           -2.49628411576308       -0.00798756536357        2.27899048514088
C           -2.15841428498772       -0.49799936946912        3.52094534677481
C           -0.81662100592583       -0.62847624635639        3.84253297604879
C            0.15505482308045       -0.36304769302247        2.89892044618628
C           -0.18932586646581        0.09938544897231        1.63330217940272
C           -1.52136047590596        0.34294686713448        1.33842975468945
O            0.84061610334227        0.24805558113540        0.67166698204697
H           -0.95812639409309       -4.76956631128412        0.19651690081393
H           -1.23619335558090       -3.06074997701025       -0.14950647693862
H           -0.66521805570864       -3.55622511406055        1.44487780521282
H            1.43439083197410       -4.40543552667781        0.43335929900136
H            2.04380266987438       -3.74823531042385       -1.88103655019871
H            0.68760958492596       -4.87255809868454       -1.82859567928860
H            0.39471779821292       -3.16627965721429       -2.14853692797222
H            2.88737277304101       -1.34012990002718        1.39125498719871
H            2.36521175913813       -4.21035759723953        2.31893888587920
H            3.26335040723819       -2.94978754583951        3.13980872912969
H            1.51140355723493       -2.80912548866405        2.96215158925941
H            4.02979981430406       -2.45938517846850       -0.52029677194220
H            3.66103142760683       -4.04145745039163        0.17635091416855
H            4.71721139796784       -2.93141578717543        1.03063804060489
H            2.94751775268805        2.58909456822887       -3.14090569630637
H            1.58417650214235        4.58225618895144       -3.61508979751888
H            0.40160914270407        5.74662755256201       -1.76943194369525
H            1.94874229776096        2.90330260989113        1.01218607570750
H            0.03733785908041       -0.63911881569458       -3.69298277695798
H           -0.70996070740457        1.33550880078949       -4.94668183817823
H           -1.90807915866000        3.16590346346483       -3.78645836887897
H           -3.07152701330816        2.79415335033486        1.11852466543511
H           -1.36022178208688        2.93380445360921        0.71238592807906
H           -2.29235579323921        4.10965940033709       -1.15713948302710
H           -3.71533120308558        3.08460659254335       -1.21216173068584
H           -3.53171903040596       -0.63705832970997       -0.26417276305884
H           -4.34632898708058        0.93009653696846       -0.30958752539684
H           -4.33742298112840        1.07038088272085        2.12707905246819
H           -4.52328097727270       -0.66141966976015        1.92000193038857
H           -2.92485687567135       -0.77045736364245        4.22811223111684
H           -0.52648378292384       -0.97366854211961        4.82078089102872
H            1.19687191394205       -0.49318679895011        3.13881051702086
68
 energy: -103.015646546139 gnorm: 0.014333875719 xtb: 6.7.1 (edcfbbe)
C           -0.61821538349853       -3.77452488618200        0.37398575021993
C            0.82873489463558       -3.65456682287428       -0.08216277428105
C            0.99594758858762       -3.86332826705552       -1.58148394024796
N            1.37520614261456       -2.36864114480563        0.37900572602679
C            2.63101570141066       -2.37944873475344        1.16063003895459
C            2.41961798554948       -3.12193949367881        2.47822712010725
C            3.81067672233724       -2.97414917725344        0.39617087186602
P            1.02169040944125       -0.95989106704168       -0.36761279972623
S            2.45977239368240       -0.19346903328083       -1.72428143129798
S            3.50409416099750        1.19818772791467       -0.66114184293893
C            2.51442225248601        2.63605416372676       -1.03870965366421
C            2.42097786325658        3.09252994890851       -2.34182217024891
C            1.65084071545900        4.20960092330022       -2.60681749937746
C            0.98396180509425        4.86490625138269       -1.58648657804941
C            1.10140191154537        4.38021531597340       -0.29581042008549
F            0.44081846418583        4.98993098486575        0.70047658004526
C            1.86055908611731        3.26424946925113        0.00426856726989
O           -0.34778749083693       -1.14440611522725       -1.12588366571840
C           -0.83148462117778       -0.01300737558212       -1.84636391812074
C           -0.50624110827926        0.12604191194448       -3.19010923173887
C           -0.92348305995830        1.23949506949792       -3.89246749795651
C           -1.61239064173296        2.26023747432289       -3.25323701126046
C           -1.93254678650402        2.11468273580205       -1.92110289370174
C           -1.57887259705611        0.96109296238862       -1.21511677748558
C           -2.17603773852417        1.00468619866900        0.16244558621425
C           -2.30791881764722        2.53326359750466        0.38085251167811
C           -2.62775436159497        3.08330340071729       -1.01394864124720
C           -3.57681736544003        0.34604155919372        0.20390648582735
C           -3.85635323412740        0.17894195994660        1.70184092669468
C           -2.48535273012816       -0.01092576942701        2.27694403247582
C           -2.14452608247804       -0.49761100425041        3.51968232211491
C           -0.80113336628483       -0.63072324560158        3.83962018137011
C            0.17019540367755       -0.37016019935762        2.89363592558595
C           -0.18150337447900        0.09269378882970        1.63202552482353
C           -1.50948624353170        0.33749071414880        1.33634546316935
O            0.85230284859217        0.24602664938661        0.65869416169156
H           -0.98012422699408       -4.77978707372077        0.18906199761232
H           -1.24862510480582       -3.07078690964042       -0.15879079817095
H           -0.68605693493948       -3.56733836162105        1.43811559741803
H            1.42040134790676       -4.41100110570173        0.43735238638272
H            2.03565081823829       -3.73761484817822       -1.87302895853997
H            0.68552052315493       -4.87138239369391       -1.83905495580979
H            0.38426491188427       -3.16381900796834       -2.14176948481544
H            2.85348796405006       -1.32381108043800        1.37381900597345
H            2.36759237729873       -4.19414498613174        2.31803998030209
H            3.25729998484290       -2.92681924268545        3.14046981859047
H            1.50285774870829       -2.79975807584829        2.96102014247413
H            3.99825237392639       -2.43805393036934       -0.53034207502655
H            3.64163499989137       -4.02243219333558        0.16930682817656
H            4.69954701828910       -2.90650307860093        1.01661507099419
H            2.94808450987200        2.58356099315532       -3.13239805265451
H            1.57737955320287        4.57730685552643       -3.61652451722184
H            0.39060500745169        5.74378705135412       -1.77388461364925
H            1.94355168330104        2.90853673386231        1.01753514512113
H            0.07082440488955       -0.64581940859355       -3.67428229574497
H           -0.68795264972205        1.32225452771538       -4.94004750113723
H           -1.89721470586548        3.15201163056804       -3.78773875628018
H           -3.06688377409544        2.77752097451675        1.11702599791715
H           -1.35340242125978        2.93004261173545        0.72528276881031
H           -2.27939038215071        4.10515284082281       -1.15477946351077
H           -3.70298380049698        3.08031715441391       -1.20738923748593
H           -3.52651783759756       -0.63226356205018       -0.27537086998516
H           -4.32576498960730        0.94325863930973       -0.30688839778950
H           -4.32810354347208        1.06950928947532        2.12247375492636
H           -4.51154817986081       -0.66341358239887        1.91897107209195
H           -2.91019091443441       -0.76513955434059        4.22936733896086
H           -0.51046374048885       -0.97252084328313        4.81902919458595
H            1.21393563249013       -0.50373353515871        3.12500384849617
68
 energy: -103.016526044167 gnorm: 0.008119551121 xtb: 6.7.1 (edcfbbe)
C           -0.63655432237277       -3.78311491725003        0.36828859601947
C            0.81413656052921       -3.65638657815923       -0.07872668559783
C            0.98761072330213       -3.86120255598433       -1.57825417635854
N            1.35312391197437       -2.36500671749632        0.38298247608161
C            2.61063509617710       -2.36820363234968        1.15972339127604
C            2.41141755641622       -3.10722019257240        2.48073995851276
C            3.78848059561390       -2.95331267910340        0.38649172488236
P            1.01426673377630       -0.95561523121285       -0.36759117742062
S            2.45522501450425       -0.20995993527574       -1.73173713163978
S            3.47775690931831        1.18621320093567       -0.65045371028993
C            2.50030609944908        2.63556942318137       -1.02817585801098
C            2.41123205925234        3.08974068477559       -2.33426498131702
C            1.64057549814933        4.20688974962161       -2.60606506279184
C            0.97009169653640        4.86461882116162       -1.58838839581388
C            1.08422825827701        4.38471475853507       -0.29519368454186
F            0.41875013097227        4.99781927014409        0.69698500624717
C            1.84448284648359        3.26977513102208        0.01161582698940
O           -0.34625891400871       -1.15142906958988       -1.12052955117861
C           -0.82449654987864       -0.01686820794402       -1.84521535306053
C           -0.48533525056736        0.11716464400610       -3.18497519199577
C           -0.89953120869382        1.23225034922989       -3.89000284466147
C           -1.59506556131706        2.25222935032046       -3.25410504057163
C           -1.91499602008205        2.11196050780240       -1.92018103952560
C           -1.56608717531285        0.95653837359850       -1.21360450295318
C           -2.16096284943392        1.00022965629552        0.16257343181371
C           -2.29434213242832        2.52844522228381        0.38260770185426
C           -2.60902031959277        3.08116363948422       -1.01264222641043
C           -3.56386692619616        0.34628006958051        0.20344603178028
C           -3.84316185171200        0.17402327238237        1.70112057360494
C           -2.47211550024009       -0.01585655286665        2.27638464990939
C           -2.12806790586928       -0.49796378874614        3.52113401828517
C           -0.78336850271828       -0.63404023787506        3.83878660828945
C            0.18837653627188       -0.37407360952402        2.89013796599420
C           -0.17124741689379        0.08819048836297        1.63140444355806
C           -1.49599691432393        0.33333735091778        1.33483335724644
O            0.86170473330736        0.24731787983032        0.65158046893995
H           -0.99600028871584       -4.78982642569131        0.17864949032603
H           -1.26829473935069       -3.08263020838938       -0.16809098834456
H           -0.71469805261067       -3.57983979125324        1.43332762480585
H            1.40199614531803       -4.41467145524714        0.44140201958851
H            2.02759822440746       -3.72755743481219       -1.86727238346258
H            0.68477998131990       -4.87061885021037       -1.84357626557331
H            0.37254332354069       -3.16505698789044       -2.13973456984093
H            2.82619575354497       -1.31119453415930        1.36765081032749
H            2.37036623227249       -4.18153064047576        2.32386149664387
H            3.24881417139971       -2.90021658800127        3.14096865651468
H            1.49178295495298       -2.79413446887586        2.96595943223059
H            3.96465041022512       -2.41459367552984       -0.54158936312205
H            3.62431849496023       -4.00288490360068        0.15858977450524
H            4.68313153486877       -2.87968819777027        0.99892294535948
H            2.94010538064889        2.57593810489448       -3.12137802186928
H            1.57048074739777        4.57325883383963       -3.61784790848324
H            0.37612562742588        5.74293431698121       -1.78045403436121
H            1.92695124347196        2.91743226448256        1.02636133373613
H            0.10015005029860       -0.65427667608886       -3.66146135912175
H           -0.65645264302871        1.31534252995523       -4.93657731401694
H           -1.87972970339782        3.14202415300901       -3.79279222735680
H           -3.05843463599299        2.76952486795584        1.11594678186241
H           -1.34363136068968        2.92802429072400        0.73630445002205
H           -2.25635275185274        4.10205343343934       -1.15066202544255
H           -3.68436601520632        3.07854735741520       -1.20693502319122
H           -3.52169920712510       -0.62927897141860       -0.28379975508789
H           -4.31073864907622        0.95118047427445       -0.30358327167218
H           -4.31522927110665        1.06457767871868        2.12221865319505
H           -4.49602047022582       -0.67116477055200        1.91492975531184
H           -2.89224852051949       -0.76224810945138        4.23452000583837
H           -0.49164872635257       -0.97554343864653        4.81884303964428
H            1.23362812052603       -0.50810311514654        3.11696762388962
68
 energy: -103.016989268134 gnorm: 0.008387749269 xtb: 6.7.1 (edcfbbe)
C           -0.65494701083566       -3.79067150652136        0.36181007835857
C            0.79921535007414       -3.65555963745184       -0.07475112471153
C            0.97905027151006       -3.86097650905417       -1.57414720368280
N            1.33183837415508       -2.36215191327713        0.38861132502909
C            2.59081179430194       -2.36042605906936        1.16075129263370
C            2.40459955228562       -3.09831166877543        2.48406560898311
C            3.76823907146572       -2.93484001814056        0.37918310201405
P            1.00664820929881       -0.95330883610045       -0.37100187423192
S            2.45983715416327       -0.22242433790538       -1.72907978428205
S            3.46185013083524        1.18356995648487       -0.64000824864295
C            2.48288786124798        2.63283659350991       -1.01875873643429
C            2.39528612281965        3.08509959403984       -2.32656586648393
C            1.62637132072317        4.20236899677402       -2.60511644980706
C            0.95300455917030        4.86221899352991       -1.59035835328303
C            1.06325900445853        4.38648545977065       -0.29509027407118
F            0.39652096430582        5.00545694570830        0.69301759833574
C            1.82372338705436        3.27265747423692        0.01667739332330
O           -0.35158431852339       -1.15479520437150       -1.12075231111188
C           -0.82102108993748       -0.02084740426662       -1.84796591662641
C           -0.47001755590123        0.11007229343766       -3.18456781878894
C           -0.87414767864546        1.23024404085548       -3.88973586242079
C           -1.57139620640833        2.25055673637421       -3.25549436309104
C           -1.89599310294900        2.11280014851605       -1.92171653520001
C           -1.55634393950807        0.95390593774322       -1.21496555051500
C           -2.14885053771027        0.99707918195737        0.16152230492209
C           -2.27911676647473        2.52606362053445        0.38102772801068
C           -2.58706407175006        3.08397710486916       -1.01444430614757
C           -3.55262456900967        0.34475635570354        0.20570430492403
C           -3.83067028773161        0.16634530885497        1.70362425650341
C           -2.45870564733832       -0.02209625448550        2.27668287294522
C           -2.11019440184705       -0.50124264931116        3.52210527171815
C           -0.76464897077836       -0.63592997674036        3.83748972359847
C            0.20640150340774       -0.37177061036197        2.88737627507650
C           -0.16055014197578        0.08739646175309        1.62991177648050
C           -1.48419688919302        0.33068114599394        1.33334687331033
O            0.86670097653231        0.24773839057449        0.64494269010927
H           -1.00565225214376       -4.80065571853186        0.16612162236811
H           -1.29053246620136       -3.09546587520806       -0.17807705690305
H           -0.74558282251854       -3.59248597361434        1.42766111259914