82
 energy: -122.771965346950 gnorm: 0.149228359975 xtb: 6.7.1 (edcfbbe)
C            2.58869800000000       -3.95411000000000        1.86813800000000
C            2.63961600000000       -3.26858200000000        0.49827200000000
C            3.85962000000000       -2.35439200000000        0.35612400000000
N            1.33066300000000       -2.67070000000000        0.10716900000000
C            0.68738200000000       -3.44008800000000       -1.02712300000000
C            1.48193200000000       -3.19807600000000       -2.33164900000000
C            0.64767500000000       -4.97804400000000       -0.75973500000000
C           -0.78959200000000       -3.10813100000000       -1.33939700000000
P            0.76471300000000       -1.25131300000000        0.78008300000000
S            1.79685000000000       -0.64022500000000        2.54093300000000
S            1.03923600000000        1.20454900000000        3.01618200000000
C            2.03467400000000        2.34520700000000        2.08380700000000
C            1.40889300000000        3.22607100000000        1.19309200000000
C            2.15850200000000        4.14855100000000        0.45746900000000
C            3.54748500000000        4.19470200000000        0.62493800000000
N            4.34320400000000        5.15574700000000       -0.14881400000000
O            5.57119600000000        5.15372900000000        0.01899300000000
O            3.74221400000000        5.90760100000000       -0.92920300000000
C            4.18479400000000        3.32978200000000        1.52432900000000
C            3.42330200000000        2.41164800000000        2.25427900000000
N            0.79662900000000       -0.05791900000000       -0.35494500000000
C            2.13287000000000        0.34114400000000       -0.78224700000000
C           -0.24701800000000        0.26127900000000       -1.26565400000000
C            0.02643000000000        0.34296300000000       -2.64958200000000
C           -0.96552900000000        0.57333100000000       -3.59591800000000
C           -2.29037500000000        0.69280500000000       -3.20346400000000
C           -3.28662600000000        0.84798600000000       -4.18388500000000
C           -4.63089300000000        0.92882400000000       -3.83489400000000
C           -4.99218700000000        0.84313300000000       -2.50093600000000
C           -4.00443000000000        0.69729300000000       -1.52219800000000
C           -2.61693400000000        0.64581700000000       -1.82648200000000
C           -1.57563300000000        0.51813200000000       -0.82380700000000
C           -1.87191300000000        0.71790200000000        0.56401900000000
C           -1.61747100000000       -0.30469000000000        1.51852000000000
C           -2.14968400000000       -0.16395200000000        2.81853700000000
C           -2.83958700000000        0.97528400000000        3.21900500000000
C           -2.99413500000000        2.04374700000000        2.34721400000000
C           -3.62542100000000        3.21553000000000        2.80074500000000
C           -3.76532800000000        4.32341000000000        1.97104400000000
C           -3.26565100000000        4.27288800000000        0.68063300000000
C           -2.64386600000000        3.10762000000000        0.22258400000000
C           -2.50400000000000        1.94089700000000        1.02295700000000
N           -0.83767900000000       -1.44986200000000        1.16078500000000
C           -1.06694400000000       -2.61863300000000        2.01762600000000
H            1.74904700000000       -4.65358200000000        1.93238700000000
H            3.50340600000000       -4.53664800000000        2.03034700000000
H            2.50613300000000       -3.25785600000000        2.70168600000000
H            2.89880700000000       -4.07533900000000       -0.19074900000000
H            3.87733100000000       -1.52472300000000        1.05962000000000
H            4.77776500000000       -2.92880400000000        0.53008700000000
H            3.92988900000000       -1.95366600000000       -0.65911600000000
H            1.49391100000000       -2.14070400000000       -2.60246800000000
H            2.52098100000000       -3.53440000000000       -2.26279900000000
H            1.03391000000000       -3.74175800000000       -3.17210100000000
H            1.62936100000000       -5.45865600000000       -0.76976300000000
H            0.06790700000000       -5.49595200000000       -1.53467700000000
H            0.16706000000000       -5.20131000000000        0.19842500000000
H           -0.94217800000000       -2.07392500000000       -1.61434800000000
H           -1.14423800000000       -3.68783800000000       -2.20233700000000
H           -1.46237800000000       -3.36128100000000       -0.51751400000000
H            0.32927600000000        3.19042600000000        1.05790100000000
H            1.64475100000000        4.81352100000000       -0.23369300000000
H            5.26239800000000        3.35919700000000        1.67228100000000
H            3.92137300000000        1.74901200000000        2.95947400000000
H            2.54129400000000       -0.34886200000000       -1.52565600000000
H            2.83608900000000        0.36277400000000        0.05180800000000
H            2.13734100000000        1.35388400000000       -1.20225100000000
H            1.02893900000000        0.18425500000000       -3.03447900000000
H           -0.68857200000000        0.60857000000000       -4.64682700000000
H           -3.01999600000000        0.89502700000000       -5.23778900000000
H           -5.39046700000000        1.04242300000000       -4.60291100000000
H           -6.03862600000000        0.88465000000000       -2.21119700000000
H           -4.34098600000000        0.60799900000000       -0.49037900000000
H           -2.00083600000000       -0.92341200000000        3.57926100000000
H           -3.20810900000000        1.03025700000000        4.24071400000000
H           -4.00649900000000        3.27674800000000        3.81821400000000
H           -4.25171000000000        5.22319600000000        2.33665500000000
H           -3.35362600000000        5.13383000000000        0.02355900000000
H           -2.24833000000000        3.12571900000000       -0.79176000000000
H           -0.62793200000000       -3.52254800000000        1.59188500000000
H           -2.13786500000000       -2.83081700000000        2.12046800000000
H           -0.62030300000000       -2.49825800000000        3.01050200000000
82
 energy: -122.795288443522 gnorm: 0.063145440483 xtb: 6.7.1 (edcfbbe)
C            2.58470269161667       -3.94438887536885        1.87591874947837
C            2.63963900559161       -3.28001174062124        0.50003191343114
C            3.84623224147140       -2.34683912316543        0.36373342869588
N            1.32947957874133       -2.70045750410039        0.09076597039562
C            0.68104267346535       -3.45928712327459       -1.04531228419754
C            1.48615832359366       -3.19756540476808       -2.32871683272890
C            0.65754469341266       -4.97690582917136       -0.74885507562968
C           -0.78336649153502       -3.08393416327907       -1.32824812690187
P            0.73214249774062       -1.27600148234424        0.73112250606652
S            1.84638069149058       -0.64345600649520        2.47955806643336
S            1.02943225360467        1.18411400956185        2.96057954208567
C            2.04219999330959        2.34809888407127        2.06474137645463
C            1.41315819861672        3.22366619163945        1.18348385597808
C            2.16024496184259        4.14470544543254        0.46377922635629
C            3.54157818999993        4.18762271496536        0.63145137507755
N            4.33230041006805        5.14295968142401       -0.13623409326765
O            5.53858989143068        5.13681286398849        0.02834954726608
O            3.73813164462092        5.87764536801938       -0.90431648875435
C            4.17623364592365        3.32691075036599        1.52400178999363
C            3.42266212107881        2.41176173525113        2.24490722412358
N            0.78151761444028       -0.03811031833787       -0.36961557625856
C            2.12857658918905        0.35031295358431       -0.78168733228666
C           -0.26915610540135        0.27181761331410       -1.28000490080747
C            0.02334042374250        0.32809593284835       -2.65495085315790
C           -0.95138916296380        0.56567769118575       -3.59119891536051
C           -2.29028954735969        0.69445764541485       -3.20595686387887
C           -3.29300103105257        0.84791353865473       -4.18192827002734
C           -4.61784459947668        0.92846521445650       -3.82634381576821
C           -4.96898464537370        0.84140820516543       -2.47992278692364
C           -3.99754297057215        0.70741193681557       -1.50623438583067
C           -2.62035259304024        0.65700693794573       -1.82370959198041
C           -1.57545619722439        0.52839904804600       -0.83860091176543
C           -1.88186316883822        0.71634824575037        0.57507459556098
C           -1.61631388630088       -0.28453692494730        1.52309361146878
C           -2.12484135088355       -0.15278001001055        2.82832525245799
C           -2.82256562816489        0.96234922096776        3.22253828664992
C           -2.99248768625367        2.04256015867276        2.34955625195363
C           -3.62429129673804        3.21890116978465        2.79643086562842
C           -3.75965378836988        4.30725799936567        1.96832047765053
C           -3.25179056124812        4.24422647337824        0.67142901829031
C           -2.64216799494471        3.09278948354400        0.20963667992086
C           -2.50891502207702        1.93788606613779        1.01701189451841
N           -0.86651090110266       -1.45482519025412        1.15610393023330
C           -1.07310453783001       -2.62247145212035        2.01757944638694
H            1.74851490597476       -4.64021606081232        1.93249788623140
H            3.49771894026608       -4.52045806519282        2.03111962912299
H            2.49859914126329       -3.22902820713761        2.69230080818778
H            2.85944892727316       -4.08208000727583       -0.20577953704384
H            3.85196646466474       -1.52277208427017        1.07296739223857
H            4.75372386261030       -2.92761733410288        0.53864626912996
H            3.91606158862573       -1.95087655622839       -0.64903306167141
H            1.48335022805613       -2.14062829101610       -2.58906126260712
H            2.51987803664665       -3.53163533425529       -2.24986013780081
H            1.03239957236893       -3.74067978280546       -3.15658833760559
H            1.63841989054499       -5.44646810766995       -0.75753354591872
H            0.07411120307330       -5.46996954412773       -1.52658109591212
H            0.17449174959998       -5.19216627979976        0.20298891288721
H           -0.92468117978316       -2.04176541516473       -1.59259859593533
H           -1.11710485739379       -3.67004936500123       -2.18777272763013
H           -1.44707277815865       -3.34314588340983       -0.50715753824017
H            0.33816185026947        3.18831189387278        1.05840062521164
H            1.66312294291664        4.81405185481391       -0.22558972565854
H            5.24825203315107        3.36926770963234        1.66479449727169
H            3.91339624795557        1.75022794174965        2.94750485535758
H            2.54220385882639       -0.33501487748489       -1.52643902121121
H            2.81290084985066        0.35802757281001        0.06974683483725
H            2.11831352856407        1.35894734286896       -1.19918811935046
H            1.03065873295027        0.18654336064839       -3.01883110792569
H           -0.67787390768604        0.61566021400496       -4.63582823300270
H           -3.01869976793079        0.89149661989723       -5.22751597748964
H           -5.37862706524443        1.04256316861090       -4.58755566350230
H           -6.01167149552333        0.87802686918801       -2.19360691824999
H           -4.32177975495796        0.61856528040452       -0.47755331548371
H           -1.99047071503910       -0.92949951112698        3.56635421682814
H           -3.20791273919037        1.01387867641537        4.23146917550114
H           -3.99930151659950        3.27183607229359        3.80985542030711
H           -4.24423375106243        5.20621194640776        2.32695716293992
H           -3.33661794403270        5.10389633728863        0.01972926988085
H           -2.24809438390106        3.10038679672586       -0.79863469675669
H           -0.62126324499179       -3.50830921197614        1.56945548498247
H           -2.14220522408887       -2.81228145922374        2.12228187940055
H           -0.62748339810839       -2.49924631104435        3.00995452164930
82
 energy: -122.803024831727 gnorm: 0.017939749239 xtb: 6.7.1 (edcfbbe)
C            2.57807067844982       -3.92986399652918        1.88635591189017
C            2.64095125732188       -3.28350125799346        0.50675372717189
C            3.83617952369972       -2.34243720324939        0.37022565723051
N            1.33192916307649       -2.71701953047742        0.08492584984642
C            0.68357874029410       -3.46943207995776       -1.05268419692176
C            1.48491169137247       -3.20442198930621       -2.33002404958300
C            0.64979598595696       -4.97575019677620       -0.75460119692857
C           -0.76875964988229       -3.06421161229344       -1.31861592390817
P            0.71053212299207       -1.29070764085298        0.68841462125814
S            1.85187706011700       -0.65122298392727        2.41268372889598
S            1.01642298953170        1.15306691045884        2.89994292505604
C            2.04299814322207        2.33812871655012        2.03642283092348
C            1.40823637391379        3.21949673221177        1.17119448090848
C            2.15612123708500        4.14329131302958        0.46721371273966
C            3.53323984802464        4.17907995072851        0.63809524855750
N            4.32309739927101        5.12753023263977       -0.12859343316309
O            5.51516107479053        5.12022526129414        0.04325430160773
O            3.72916323765257        5.85513947656235       -0.88369134130211
C            4.16655315740849        3.31981247449957        1.52649248908998
C            3.41733603349000        2.39858603813801        2.23309141569065
N            0.77148267610776       -0.00677580556166       -0.37265536637485
C            2.12335432940044        0.37196154106170       -0.77883890049622
C           -0.28357439628433        0.28291826738539       -1.28901399568375
C            0.02535456034116        0.32196792870771       -2.66098161816261
C           -0.94034623435811        0.56175708772954       -3.58975501781293
C           -2.28694387379487        0.69688796209343       -3.20541646043046
C           -3.29764568248930        0.84885768685388       -4.17512318616247
C           -4.60909024843037        0.92970950558449       -3.80874159894701
C           -4.94933522285461        0.84473486585665       -2.45130682884325
C           -3.98642892800881        0.71921883964413       -1.48528005659104
C           -2.61653401470330        0.66509973387544       -1.82033571700100
C           -1.56955135186842        0.53490356292157       -0.84924061867449
C           -1.88233845108453        0.71044241152723        0.58467231509025
C           -1.61259535070999       -0.27217590614674        1.52313030940532
C           -2.10586399749971       -0.15143884816079        2.83506801501616
C           -2.80453748883747        0.95031094456984        3.22601188535666
C           -2.98495868839207        2.03643242014562        2.35072784409599
C           -3.61953118297981        3.21657144848912        2.78857107654214
C           -3.75090213070487        4.28938735166212        1.95604566863121
C           -3.23826585527047        4.21330876882252        0.65326323577398
C           -2.63787262417907        3.07084504974029        0.19320370555061
C           -2.50514442657847        1.92907377882605        1.01458367176341
N           -0.88190342506958       -1.45785485566503        1.15370242228477
C           -1.07967088681430       -2.62599050737282        2.01572530842918
H            1.74328093389366       -4.62204065767934        1.94546543013552
H            3.49138008615682       -4.49635707394390        2.04802785204812
H            2.48721333552564       -3.19122307757842        2.67991569883718
H            2.83850213083023       -4.08188048101776       -0.20702746476554
H            3.82254362975846       -1.52853489769188        1.08786399730769
H            4.73832312802702       -2.92319783048304        0.54950973154645
H            3.90051715681873       -1.94227924247537       -0.63811609780215
H            1.46837556762917       -2.14608069071121       -2.57583573794755
H            2.51746996131496       -3.52795366364639       -2.24036216292398
H            1.03597911627562       -3.74586986844308       -3.15695999005664
H            1.62807578392430       -5.44211704299607       -0.75828712667979
H            0.06369572416282       -5.46539400709205       -1.52641504103673
H            0.17439737577065       -5.17793235419897        0.20030523905941
H           -0.88455333573174       -2.01122333286810       -1.55966190115666
H           -1.10760128619146       -3.63287648526011       -2.18291617087141
H           -1.42641602913153       -3.31997966420763       -0.49560224195486
H            0.33674049364257        3.17957677094778        1.05098266673785
H            1.67915780226975        4.82447487114715       -0.22026255507481
H            5.23590206491142        3.37764858663308        1.65994565407572
H            3.89966424908061        1.73417466564852        2.93352107284367
H            2.54520462710376       -0.31137923147340       -1.52060531384576
H            2.78552025616371        0.36974639663547        0.08834952064367
H            2.10082543339943        1.37771088475054       -1.19392881485168
H            1.03667421010863        0.18132226434797       -3.00356278471789
H           -0.67788951897798        0.61867821068929       -4.63375353766476
H           -3.01488229996224        0.88720096981021       -5.21581117487065
H           -5.37644177870743        1.04181239151889       -4.55950251746647
H           -5.99018957297341        0.87348897072617       -2.16772748228146
H           -4.29219064375942        0.63824956044810       -0.45391462348840
H           -1.95833567965112       -0.93450676142155        3.55835695588236
H           -3.20235034735003        1.00690337369410        4.22656509790965
H           -3.98844584966864        3.26134175720230        3.80165995870178
H           -4.23216705900648        5.19132661698994        2.30298472363475
H           -3.31714870274774        5.07406319665630        0.00667517677113
H           -2.24613927941117        3.06049426528580       -0.81241731411360
H           -0.61596209777219       -3.49425005285673        1.55017751107895
H           -2.14781512290115       -2.80539396866530        2.11969699301425
H           -0.63546763554947       -2.50368121576039        3.00779792152339
82
 energy: -122.805542359216 gnorm: 0.016258198097 xtb: 6.7.1 (edcfbbe)
C            2.56719353364316       -3.90985615107657        1.89793280993818
C            2.63580519562343       -3.28853848737419        0.50768118573604
C            3.82511709465482       -2.34216683519221        0.37640814467819
N            1.33003753839812       -2.72299946735312        0.08016738915991
C            0.68423850849286       -3.47077514780689       -1.05768561968736
C            1.48858742472137       -3.20568889485340       -2.33208290757692
C            0.64133463437921       -4.97485579688149       -0.75605488414925
C           -0.75953228287319       -3.03684200837667       -1.31308483289144
P            0.70784799012480       -1.29681200110021        0.66711334271129
S            1.86642322336024       -0.67256695062854        2.37658016233514
S            0.99193160832940        1.11742468639627        2.84378010625615
C            2.02898230923614        2.31690168994833        2.00684066390730
C            1.39433328021952        3.20935891928199        1.15290636948991
C            2.14630623981014        4.14235083421823        0.46569813929218
C            3.52241848876579        4.17215427081295        0.64550467786293
N            4.31536183426502        5.12846159827100       -0.10870667559874
O            5.50944894934010        5.10229724269384        0.05360338825563
O            3.72295021628802        5.84266604863180       -0.87933524693269
C            4.15353289353300        3.30531911201125        1.52806788552689
C            3.40123201112369        2.37375131887710        2.21868262847341
N            0.77147364944966        0.01317244558960       -0.36811188067544
C            2.12121903760056        0.39787300336757       -0.77126737006394
C           -0.28113744030510        0.28588315855281       -1.29347456797795
C            0.03069574255980        0.32022149182842       -2.66697315958841
C           -0.93800652706075        0.55944849381218       -3.59226616727110
C           -2.28424351713222        0.69729654618220       -3.20154022860300
C           -3.30203890573104        0.84943831543029       -4.16445866110560
C           -4.61038881728464        0.93044460938101       -3.78659705344626
C           -4.94277386527981        0.84935859327327       -2.42496274752573
C           -3.97537169620707        0.72799118428780       -1.46595110735495
C           -2.60945122930390        0.66690576584574       -1.81673626546483
C           -1.56172004537413        0.53281977118406       -0.85187483819002
C           -1.87377335469075        0.70180516867306        0.58708038851660
C           -1.60249002851871       -0.27534954811764        1.52241752772102
C           -2.08558573837193       -0.15464446444000        2.84034090890513
C           -2.78774776580754        0.94532882634535        3.22853925096419
C           -2.97375533606519        2.02846589727519        2.34840968765038
C           -3.61006797826586        3.21113051075935        2.77814168140684
C           -3.73968278385540        4.27745066111764        1.93688112097870
C           -3.22630634500233        4.19394274035252        0.63273770882780
C           -2.62909967753709        3.05012803306550        0.17903618050576
C           -2.49590461372718        1.91778068949423        1.01344700330571
N           -0.87921136490075       -1.46292702677372        1.15092880891177
C           -1.07968064116238       -2.63308031982952        2.00884974047011
H            1.73324328322144       -4.60149832036690        1.96769643282362
H            3.48184031479798       -4.46838905779254        2.07810479608633
H            2.46992537639376       -3.15116911450684        2.67236824952901
H            2.83084541008748       -4.09270238397435       -0.19929200001556
H            3.79926093302912       -1.53395343971445        1.09963717100592
H            4.73013026828943       -2.91639117305624        0.55787228548673
H            3.88707855281084       -1.93455196632930       -0.62846616950740
H            1.46399705442536       -2.14702572487639       -2.57619919420268
H            2.52303949521842       -3.52188969435805       -2.23698330026767
H            1.04611442947625       -3.75125551118054       -3.15970641891889
H            1.61775424901633       -5.44684432207846       -0.75983008878139
H            0.04988735336922       -5.46251882994578       -1.52478351469507
H            0.16814675873364       -5.17039025704861        0.20202203214703
H           -0.84955134801250       -1.97433117591673       -1.53014484486378
H           -1.11304268871055       -3.57937108212717       -2.18774038775684
H           -1.41731512549676       -3.29223029195411       -0.49027470912412
H            0.32347753609406        3.16832889227845        1.03205533082459
H            1.68275590178951        4.83955330929259       -0.21564856449168
H            5.22215969895634        3.37350630169318        1.66432117037640
H            3.87705997914383        1.70035422464649        2.91478239084198
H            2.55266422815198       -0.28072625277151       -1.51160088147539
H            2.77320075120635        0.39850748986234        0.10157443599924
H            2.08879050526539        1.40391093480962       -1.18463168120950
H            1.04409968275456        0.17710217052560       -3.00045827578484
H           -0.68527372785341        0.61755323645719       -4.63904538449906
H           -3.01946374709847        0.88519569781192       -5.20557117386357
H           -5.38591247818632        1.04177856050000       -4.52818743441039
H           -5.98236680203667        0.87837323215239       -2.13809190578318
H           -4.26434273499133        0.65667946712973       -0.42857826200389
H           -1.92367845084632       -0.93776873837445        3.55963484053348
H           -3.18831021917881        1.00856758093289        4.22780760952045
H           -3.97783114171709        3.25553407027197        3.79195831835115
H           -4.22121664705321        5.18279738761242        2.27244257602855
H           -3.30550514695264        5.05238948599203       -0.01625692793350
H           -2.23995308442751        3.02244201572132       -0.82759997723153
H           -0.61411176680398       -3.49551241207684        1.53784853062914
H           -2.14872231694594       -2.80987986003045        2.11047127061310
H           -0.63737578538239       -2.51463897636710        3.00188496834014
82
 energy: -122.806969599722 gnorm: 0.018906022892 xtb: 6.7.1 (edcfbbe)
C            2.55230423664592       -3.88607350254575        1.91461705358744
C            2.63028461137432       -3.29414253252020        0.51183419427449
C            3.81650976983956       -2.34633805583279        0.37798587890516
N            1.32814666419863       -2.73021687231906        0.07622217908226
C            0.68541198987921       -3.47000258851294       -1.06356770741457
C            1.49505978647828       -3.20809824981724       -2.33521722272325
C            0.62457095186472       -4.97308465252928       -0.76124964168210
C           -0.74785188380579       -3.00521918394576       -1.31336491651979
P            0.71283384394598       -1.30351971587409        0.64593897669022
S            1.84333488206886       -0.67659953978130        2.35550675219091
S            0.95471589883674        1.10710813278822        2.80806465731932
C            2.00442504016225        2.29654939705298        1.97538275684446
C            1.37263988314634        3.20095011331969        1.13145977734122
C            2.13126934859828        4.14158562929979        0.46195088161442
C            3.50754291267498        4.15734640632233        0.64770559264163
N            4.31105973918173        5.09687144935675       -0.11795356615809
O            5.50148492705993        5.09705183421825        0.08757915553111
O            3.71699485114639        5.84832892288063       -0.85514557429309
C            4.13382201655905        3.28222569003555        1.52619260105279
C            3.37512568801738        2.34156976132260        2.19864976796080
N            0.77608143764092        0.03391769359675       -0.35996059281871
C            2.12125259626825        0.43350122112262       -0.75948289718267
C           -0.27203826480375        0.28601966491347       -1.29759950445977
C            0.03746435963034        0.31795041353648       -2.67359438310577
C           -0.93829577298198        0.55406581875820       -3.59401067704352
C           -2.28257367218854        0.69346335462499       -3.19403424510680
C           -3.30947616814523        0.84817298235954       -4.14773203871474
C           -4.61475823192509        0.93122026875775       -3.75541222523729
C           -4.93798291461081        0.85563192587469       -2.39064854396051
C           -3.96230462419162        0.73420224553970       -1.44099527946043
C           -2.60102564438049        0.66344350534601       -1.81010265839519
C           -1.55085060150123        0.52590532338653       -0.85206015331666
C           -1.85828763005804        0.69028244181114        0.58836200946183
C           -1.58497720993167       -0.28319105823824        1.52309601594172
C           -2.05846389340864       -0.15800892851831        2.84638778461959
C           -2.76319554198058        0.94254110202987        3.23094754702770
C           -2.95544802739896        2.01983745085732        2.34403422593144
C           -3.59464449460417        3.20512948143940        2.76306188295492
C           -3.72400942170624        4.26380696044733        1.91030815513121
C           -3.21107989520794        4.17281919418234        0.60590173241528
C           -2.61357562523740        3.02625165924680        0.16223704030579
C           -2.47995792448138        1.90449305125892        1.01140204179186
N           -0.86682398290469       -1.46941952808452        1.14976058070181
C           -1.07450900633933       -2.64430322779485        1.99838450342997
H            1.71897617084738       -4.57743705385979        1.99794323412147
H            3.46819513709076       -4.43506526026134        2.11955948099966
H            2.44708396603198       -3.10657720705125        2.66728976897688
H            2.82453883002968       -4.10960532297194       -0.18201225792050
H            3.78629159695529       -1.54381112104684        1.10603316679488
H            4.72562985799387       -2.91416828187468        0.55712964224600
H            3.87260303520652       -1.92953803114891       -0.62345784579858