      -----------------------------------------------------------      
     |                   =====================                   |     
     |                           x T B                           |     
     |                   =====================                   |     
     |                         S. Grimme                         |     
     |          Mulliken Center for Theoretical Chemistry        |     
     |                    University of Bonn                     |     
      -----------------------------------------------------------      

   * xtb version 6.7.1 (edcfbbe) compiled by 'conda@3ef47c1a292c' on 2024-11-25

   xtb is free software: you can redistribute it and/or modify it under
   the terms of the GNU Lesser General Public License as published by
   the Free Software Foundation, either version 3 of the License, or
   (at your option) any later version.
   
   xtb is distributed in the hope that it will be useful,
   but WITHOUT ANY WARRANTY; without even the implied warranty of
   MERCHANTABILITY or FITNESS FOR A PARTICULAR PURPOSE.  See the
   GNU Lesser General Public License for more details.
   
   Cite this work as:
   * C. Bannwarth, E. Caldeweyher, S. Ehlert, A. Hansen, P. Pracht,
     J. Seibert, S. Spicher, S. Grimme, WIREs Comput. Mol. Sci., 2020, 11,
     e01493. DOI: 10.1002/wcms.1493
   
   for GFN2-xTB:
   * C. Bannwarth, S. Ehlert and S. Grimme., J. Chem. Theory Comput., 2019,
     15, 1652-1671. DOI: 10.1021/acs.jctc.8b01176
   for GFN1-xTB:
   * S. Grimme, C. Bannwarth, P. Shushkov, J. Chem. Theory Comput., 2017,
     13, 1989-2009. DOI: 10.1021/acs.jctc.7b00118
   for GFN0-xTB:
   * P. Pracht, E. Caldeweyher, S. Ehlert, S. Grimme, ChemRxiv, 2019, preprint.
     DOI: 10.26434/chemrxiv.8326202.v1
   for GFN-FF:
   * S. Spicher and S. Grimme, Angew. Chem. Int. Ed., 2020, 59, 15665-15673.
     DOI: 10.1002/anie.202004239
   
   for ALPB and GBSA implicit solvation:
   * S. Ehlert, M. Stahn, S. Spicher, S. Grimme, J. Chem. Theory Comput.,
     2021, 17, 4250-4261. DOI: 10.1021/acs.jctc.1c00471
   
   for ddCOSMO and CPCM-X implicit solvation:
   * M. Stahn, S. Ehlert, S. Grimme, J. Phys. Chem. A,
     2023, XX, XXXX-XXXX. DOI: 10.1021/acs.jpca.3c04382
   
   for DFT-D4:
   * E. Caldeweyher, C. Bannwarth and S. Grimme, J. Chem. Phys., 2017,
     147, 034112. DOI: 10.1063/1.4993215
   * E. Caldeweyher, S. Ehlert, A. Hansen, H. Neugebauer, S. Spicher,
     C. Bannwarth and S. Grimme, J. Chem. Phys., 2019, 150, 154122.
     DOI: 10.1063/1.5090222
   * E. Caldeweyher, J.-M. Mewes, S. Ehlert and S. Grimme, Phys. Chem. Chem. Phys.
     2020, 22, 8499-8512. DOI: 10.1039/D0CP00502A
   
   for sTDA-xTB:
   * S. Grimme and C. Bannwarth, J. Chem. Phys., 2016, 145, 054103.
     DOI: 10.1063/1.4959605
   
   in the mass-spec context:
   * V. Asgeirsson, C. Bauer and S. Grimme, Chem. Sci., 2017, 8, 4879.
     DOI: 10.1039/c7sc00601b
   * J. Koopman and S. Grimme, ACS Omega 2019, 4, 12, 15120-15133.
     DOI: 10.1021/acsomega.9b02011
   
   for metadynamics refer to:
   * S. Grimme, J. Chem. Theory Comput., 2019, 155, 2847-2862
     DOI: 10.1021/acs.jctc.9b00143
   
   for SPH calculations refer to:
   * S. Spicher and S. Grimme, J. Chem. Theory Comput., 2021, 17, 1701-1714
     DOI: 10.1021/acs.jctc.0c01306
   
   for ONIOM refer to:
   * C. Plett, A. Katbashev, S. Ehlert, S. Grimme, M. Bursch,
     Phys. Chem. Chem. Phys., 2023, 25, 17860-17868. DOI: 10.1039/D3CP02178E
   
   for DIPRO refer to:
   * J. Kohn, N. Gildemeister, S. Grimme, D. Fazzi, A. Hansen,
     J. Chem. Phys., 2023, just accepted.
   
   for PTB refer to:
   * S. Grimme, M. Mueller, A. Hansen, J. Chem. Phys., 2023, 158, 124111.
     DOI: 10.1063/5.0137838
   
   with help from (in alphabetical order)
   P. Atkinson, C. Bannwarth, F. Bohle, G. Brandenburg, E. Caldeweyher
   M. Checinski, S. Dohm, S. Ehlert, S. Ehrlich, I. Gerasimov, C. Hölzer
   A. Katbashev, J. Kohn, J. Koopman, C. Lavigne, S. Lehtola, F. März, M. Müller,
   F. Musil, H. Neugebauer, J. Pisarek, C. Plett, P. Pracht, F. Pultar,
   J. Seibert, P. Shushkov, S. Spicher, M. Stahn, M. Steiner, T. Strunk,
   J. Stückrath, T. Rose, and J. Unsleber
   
 * started run on 2024/12/16 at 18:50:28.817     
   ID    Z sym.   atoms
    1    6 C      1, 3-22, 24, 28-33, 35-39
    2    7 N      2, 23, 34
    3   15 P      25
    4   16 S      26, 27
    5    1 H      40-74

           -------------------------------------------------
          |                Calculation Setup                |
           -------------------------------------------------

          program call               : xtb --gfn2 --opt extreme -P 8 --charge 1 molecule.xyz
          hostname                   : node20
          coordinate file            : molecule.xyz
          omp threads                :                     8


           -------------------------------------------------
          |                 G F N 2 - x T B                 |
           -------------------------------------------------

        Reference                      10.1021/acs.jctc.8b01176
      * Hamiltonian:
        H0-scaling (s, p, d)           1.850000    2.230000    2.230000
        zeta-weighting                 0.500000
      * Dispersion:
        s8                             2.700000
        a1                             0.520000
        a2                             5.000000
        s9                             5.000000
      * Repulsion:
        kExp                           1.500000    1.000000
        rExp                           1.000000
      * Coulomb:
        alpha                          2.000000
        third order                    shell-resolved
        anisotropic                    true
        a3                             3.000000
        a5                             4.000000
        cn-shift                       1.200000
        cn-exp                         4.000000
        max-rad                        5.000000


          ...................................................
          :                      SETUP                      :
          :.................................................:
          :  # basis functions                 209          :
          :  # atomic orbitals                 206          :
          :  # shells                          116          :
          :  # electrons                       198          :
          :  max. iterations                   250          :
          :  Hamiltonian                  GFN2-xTB          :
          :  restarted?                      false          :
          :  GBSA solvation                  false          :
          :  PC potential                    false          :
          :  electronic temp.          300.0000000     K    :
          :  accuracy                    1.0000000          :
          :  -> integral cutoff          0.2500000E+02      :
          :  -> integral neglect         0.1000000E-07      :
          :  -> SCF convergence          0.1000000E-05 Eh   :
          :  -> wf. convergence          0.1000000E-03 e    :
          :  Broyden damping             0.4000000          :
          :  net charge                          1          :
          :  unpaired electrons                  0          :
          ...................................................

 iter      E             dE          RMSdq      gap      omega  full diag
   1   -107.4706167 -0.107471E+03  0.452E+00    1.69       0.0  T
   2   -107.6188175 -0.148201E+00  0.276E+00    2.07       1.0  T
   3   -107.5972148  0.216027E-01  0.136E+00    1.92       1.0  T
   4   -107.6203979 -0.231831E-01  0.673E-01    1.62       1.0  T
   5   -107.6446329 -0.242350E-01  0.289E-01    1.74       1.0  T
   6   -107.6469454 -0.231247E-02  0.144E-01    1.71       1.0  T
   7   -107.6483296 -0.138425E-02  0.499E-02    1.72       1.0  T
   8   -107.6483780 -0.484194E-04  0.243E-02    1.73       1.0  T
   9   -107.6483839 -0.584828E-05  0.117E-02    1.73       1.0  T
  10   -107.6483847 -0.853360E-06  0.681E-03    1.73       1.7  T
  11   -107.6483855 -0.729578E-06  0.374E-03    1.73       3.1  T
  12   -107.6483857 -0.226881E-06  0.229E-03    1.72       5.1  T
  13   -107.6483857 -0.324117E-07  0.120E-03    1.73       9.7  T
  14   -107.6483858 -0.343314E-07  0.545E-04    1.73      21.3  T
  15   -107.6483858 -0.230878E-08  0.246E-04    1.73      47.2  T

   *** convergence criteria satisfied after 15 iterations ***

         #    Occupation            Energy/Eh            Energy/eV
      -------------------------------------------------------------
         1        2.0000           -0.8623172             -23.4648
       ...           ...                  ...                  ...
        93        2.0000           -0.5050622             -13.7434
        94        2.0000           -0.4972228             -13.5301
        95        2.0000           -0.4960407             -13.4980
        96        2.0000           -0.4860403             -13.2258
        97        2.0000           -0.4835763             -13.1588
        98        2.0000           -0.4680851             -12.7372
        99        2.0000           -0.4550087             -12.3814 (HOMO)
       100                         -0.3916157             -10.6564 (LUMO)
       101                         -0.3714207             -10.1069
       102                         -0.3592404              -9.7754
       103                         -0.3495094              -9.5106
       104                         -0.3370610              -9.1719
       ...                                ...                  ...
       206                          1.0785983              29.3502
      -------------------------------------------------------------
                  HL-Gap            0.0633929 Eh            1.7250 eV
             Fermi-level           -0.4233122 Eh          -11.5189 eV

 SCC (total)                   0 d,  0 h,  0 min,  2.478 sec
 SCC setup                      ...        0 min,  0.000 sec (  0.011%)
 Dispersion                     ...        0 min,  0.001 sec (  0.044%)
 classical contributions        ...        0 min,  0.000 sec (  0.004%)
 integral evaluation            ...        0 min,  0.006 sec (  0.227%)
 iterations                     ...        0 min,  2.350 sec ( 94.851%)
 molecular gradient             ...        0 min,  0.116 sec (  4.674%)
 printout                       ...        0 min,  0.005 sec (  0.187%)

         :::::::::::::::::::::::::::::::::::::::::::::::::::::
         ::                     SUMMARY                     ::
         :::::::::::::::::::::::::::::::::::::::::::::::::::::
         :: total energy            -106.002379374404 Eh    ::
         :: gradient norm              0.131838207332 Eh/a0 ::
         :: HOMO-LUMO gap              1.725009588607 eV    ::
         ::.................................................::
         :: SCC energy              -107.643200500895 Eh    ::
         :: -> isotropic ES            0.078061134184 Eh    ::
         :: -> anisotropic ES          0.001852278735 Eh    ::
         :: -> anisotropic XC          0.067665918413 Eh    ::
         :: -> dispersion             -0.115192401143 Eh    ::
         :: repulsion energy           1.640821126492 Eh    ::
         :: add. restraining           0.000000000000 Eh    ::
         :: total charge               1.000000000000 e     ::
         :::::::::::::::::::::::::::::::::::::::::::::::::::::

      ----------------------------------------------------------- 
     |                   =====================                   |
     |                        A N C O P T                        |
     |                   =====================                   |
     |               Approximate Normal Coordinate               |
     |                Rational Function Optimizer                |
      ----------------------------------------------------------- 
      ----------------------------------------------------------- 
     |                   =====================                   |
     |                        A N C O P T                        |
     |                   =====================                   |
     |               Approximate Normal Coordinate               |
     |                Rational Function Optimizer                |
      ----------------------------------------------------------- 

          ...................................................
          :                      SETUP                      :
          :.................................................:
          :   optimization level           extreme          :
          :   max. optcycles                  1480          :
          :   ANC micro-cycles                  20          :
          :   degrees of freedom               216          :
          :.................................................:
          :   RF solver                   davidson          :
          :   write xtbopt.log                true          :
          :   linear?                        false          :
          :   energy convergence         0.5000000E-07 Eh   :
          :   grad. convergence          0.5000000E-04 Eh/α :
          :   maxmium RF displ.          1.0000000          :
          :   Hlow (freq-cutoff)         0.1000000E-01      :
          :   Hmax (freq-cutoff)         5.0000000          :
          :   S6 in model hess.         20.0000000          :
          ...................................................

generating ANC from exact Hessian ...
Using Lindh-Hessian (1995)
 Shifting diagonal of input Hessian by    9.8624954097735820E-003
 Lowest  eigenvalues of input Hessian
    0.000000    0.000000    0.000000    0.000000    0.000000    0.000000
    0.010000    0.010069    0.010196    0.010248    0.010305    0.010466
    0.010562    0.010710    0.011148    0.011191    0.011511    0.011837
 Highest eigenvalues
    1.942617    1.944793    1.988041    2.025270    2.066931    2.069641


........................................................................
.............................. CYCLE    1 ..............................
........................................................................

 iter      E             dE          RMSdq      gap      omega  full diag
   1   -107.6483858 -0.107648E+03  0.112E-04    1.73       0.0  T
   2   -107.6483858 -0.103370E-09  0.735E-05    1.73     158.1  T
   3   -107.6483858 -0.900542E-10  0.512E-05    1.73     226.9  T
     SCC iter.                  ...        0 min,  0.306 sec
     gradient                   ...        0 min,  0.114 sec
 * total energy  :  -106.0023794 Eh     change       -0.1518217E-08 Eh
   gradient norm :     0.1318379 Eh/α   predicted     0.0000000E+00 (-100.00%)
   displ. norm   :     0.3941162 α      lambda       -0.2608538E-01
   maximum displ.:     0.1238884 α      in ANC's #22, #20, #69, ...

........................................................................
.............................. CYCLE    2 ..............................
........................................................................

 iter      E             dE          RMSdq      gap      omega  full diag
   1   -107.7173007 -0.107717E+03  0.271E-01    1.84       0.0  T
   2   -107.7174380 -0.137335E-03  0.143E-01    1.91       1.0  T
   3   -107.7173425  0.955654E-04  0.496E-02    1.94       1.0  T
   4   -107.7174523 -0.109802E-03  0.251E-02    1.95       1.0  T
   5   -107.7174733 -0.209936E-04  0.126E-02    1.94       1.0  T
   6   -107.7174798 -0.650250E-05  0.552E-03    1.94       2.1  T
   7   -107.7174803 -0.532454E-06  0.362E-03    1.94       3.2  T
   8   -107.7174805 -0.184013E-06  0.205E-03    1.94       5.7  T
   9   -107.7174805 -0.427515E-07  0.967E-04    1.94      12.0  T
  10   -107.7174805 -0.745632E-08  0.385E-04    1.94      30.2  T
     SCC iter.                  ...        0 min,  1.501 sec
     gradient                   ...        0 min,  0.112 sec
 * total energy  :  -106.0207427 Eh     change       -0.1836332E-01 Eh
   gradient norm :     0.0565324 Eh/α   predicted    -0.1509641E-01 ( -17.79%)
   displ. norm   :     0.4058782 α      lambda       -0.9433907E-02
   maximum displ.:     0.1230022 α      in ANC's #15, #14, #49, ...

........................................................................
.............................. CYCLE    3 ..............................
........................................................................

 iter      E             dE          RMSdq      gap      omega  full diag
   1   -107.7584174 -0.107758E+03  0.198E-01    2.09       0.0  T
   2   -107.7584596 -0.421527E-04  0.105E-01    2.12       1.0  T
   3   -107.7584251  0.344490E-04  0.293E-02    2.14       1.0  T
   4   -107.7584656 -0.404518E-04  0.135E-02    2.14       1.0  T
   5   -107.7584717 -0.607262E-05  0.682E-03    2.14       1.7  T
   6   -107.7584735 -0.186241E-05  0.283E-03    2.14       4.1  T
   7   -107.7584736 -0.911514E-07  0.174E-03    2.14       6.7  T
   8   -107.7584737 -0.585404E-07  0.883E-04    2.14      13.2  T
   9   -107.7584737 -0.697746E-08  0.520E-04    2.14      22.4  T
     SCC iter.                  ...        0 min,  1.003 sec
     gradient                   ...        0 min,  0.115 sec
 * total energy  :  -106.0265187 Eh     change       -0.5776029E-02 Eh
   gradient norm :     0.0126326 Eh/α   predicted    -0.5494014E-02 (  -4.88%)
   displ. norm   :     0.3687315 α      lambda       -0.2174373E-02
   maximum displ.:     0.1611348 α      in ANC's #14, #15, #10, ...

........................................................................
.............................. CYCLE    4 ..............................
........................................................................

 iter      E             dE          RMSdq      gap      omega  full diag
   1   -107.7618955 -0.107762E+03  0.107E-01    2.18       0.0  T
   2   -107.7619135 -0.179890E-04  0.539E-02    2.19       1.0  T
   3   -107.7619090  0.449998E-05  0.157E-02    2.19       1.0  T
   4   -107.7619128 -0.385183E-05  0.912E-03    2.20       1.3  T
   5   -107.7619165 -0.365347E-05  0.327E-03    2.20       3.6  T
   6   -107.7619170 -0.471597E-06  0.159E-03    2.20       7.3  T
   7   -107.7619171 -0.117890E-06  0.489E-04    2.20      23.8  T
   8   -107.7619171 -0.420101E-08  0.277E-04    2.20      42.0  T
     SCC iter.                  ...        0 min,  1.057 sec
     gradient                   ...        0 min,  0.113 sec
 * total energy  :  -106.0281162 Eh     change       -0.1597438E-02 Eh
   gradient norm :     0.0113219 Eh/α   predicted    -0.1235066E-02 ( -22.68%)
   displ. norm   :     0.4664030 α      lambda       -0.1726532E-02
   maximum displ.:     0.2043785 α      in ANC's #15, #14, #10, ...

........................................................................
.............................. CYCLE    5 ..............................
........................................................................

 iter      E             dE          RMSdq      gap      omega  full diag
   1   -107.7634301 -0.107763E+03  0.988E-02    2.22       0.0  T
   2   -107.7634418 -0.117101E-04  0.526E-02    2.22       1.0  T
   3   -107.7634387  0.318438E-05  0.167E-02    2.22       1.0  T
   4   -107.7634440 -0.535507E-05  0.535E-03    2.22       2.2  T
   5   -107.7634442 -0.156783E-06  0.322E-03    2.22       3.6  T
   6   -107.7634445 -0.328303E-06  0.132E-03    2.22       8.8  T
   7   -107.7634445 -0.215576E-07  0.839E-04    2.22      13.9  T
   8   -107.7634445 -0.166542E-07  0.396E-04    2.22      29.4  T
     SCC iter.                  ...        0 min,  1.061 sec
     gradient                   ...        0 min,  0.113 sec
 * total energy  :  -106.0292583 Eh     change       -0.1142155E-02 Eh
   gradient norm :     0.0099355 Eh/α   predicted    -0.1051065E-02 (  -7.98%)
   displ. norm   :     0.3841109 α      lambda       -0.8865465E-03
   maximum displ.:     0.1869682 α      in ANC's #14, #15, #10, ...

........................................................................
.............................. CYCLE    6 ..............................
........................................................................

 iter      E             dE          RMSdq      gap      omega  full diag
   1   -107.7629794 -0.107763E+03  0.993E-02    2.22       0.0  T
   2   -107.7629941 -0.147098E-04  0.451E-02    2.22       1.0  T
   3   -107.7629948 -0.704122E-06  0.119E-02    2.22       1.0  T
   4   -107.7629948 -0.561901E-07  0.680E-03    2.22       1.7  T
   5   -107.7629961 -0.128740E-05  0.202E-03    2.22       5.8  T
   6   -107.7629962 -0.582767E-07  0.105E-03    2.22      11.1  T
   7   -107.7629962 -0.605315E-07  0.476E-04    2.22      24.4  T
   8   -107.7629962 -0.240050E-08  0.276E-04    2.22      42.1  T
     SCC iter.                  ...        0 min,  0.905 sec
     gradient                   ...        0 min,  0.111 sec
 * total energy  :  -106.0297923 Eh     change       -0.5339587E-03 Eh
   gradient norm :     0.0064387 Eh/α   predicted    -0.5086858E-03 (  -4.73%)
   displ. norm   :     0.2553061 α      lambda       -0.4100534E-03
   maximum displ.:     0.1028633 α      in ANC's #14, #15, #10, ...

........................................................................
.............................. CYCLE    7 ..............................
........................................................................

 iter      E             dE          RMSdq      gap      omega  full diag
   1   -107.7654518 -0.107765E+03  0.509E-02    2.23       0.0  T
   2   -107.7654554 -0.355287E-05  0.280E-02    2.22       1.0  T
   3   -107.7654539  0.147906E-05  0.759E-03    2.22       1.5  T
   4   -107.7654554 -0.152808E-05  0.365E-03    2.22       3.2  T
   5   -107.7654560 -0.604392E-06  0.159E-03    2.22       7.3  T
   6   -107.7654561 -0.477393E-07  0.957E-04    2.22      12.2  T
   7   -107.7654561 -0.250531E-07  0.494E-04    2.22      23.5  T
     SCC iter.                  ...        0 min,  0.955 sec
     gradient                   ...        0 min,  0.110 sec
 * total energy  :  -106.0300645 Eh     change       -0.2722489E-03 Eh
   gradient norm :     0.0050921 Eh/α   predicted    -0.2183909E-03 ( -19.78%)
   displ. norm   :     0.1929429 α      lambda       -0.2161782E-03
   maximum displ.:     0.0818251 α      in ANC's #2, #13, #14, ...

........................................................................
.............................. CYCLE    8 ..............................
........................................................................

 iter      E             dE          RMSdq      gap      omega  full diag
   1   -107.7680152 -0.107768E+03  0.365E-02    2.23       0.0  T
   2   -107.7680163 -0.104365E-05  0.205E-02    2.23       1.0  T
   3   -107.7680149  0.134731E-05  0.558E-03    2.23       2.1  T
   4   -107.7680166 -0.163937E-05  0.191E-03    2.23       6.1  T
   5   -107.7680167 -0.111756E-06  0.786E-04    2.23      14.8  T
   6   -107.7680167 -0.150971E-07  0.305E-04    2.23      38.2  T
     SCC iter.                  ...        0 min,  0.842 sec
     gradient                   ...        0 min,  0.113 sec
 * total energy  :  -106.0302126 Eh     change       -0.1480213E-03 Eh
   gradient norm :     0.0036677 Eh/α   predicted    -0.1121137E-03 ( -24.26%)
   displ. norm   :     0.1740500 α      lambda       -0.1275874E-03
   maximum displ.:     0.0879951 α      in ANC's #2, #13, #8, ...

........................................................................
.............................. CYCLE    9 ..............................
........................................................................

 iter      E             dE          RMSdq      gap      omega  full diag
   1   -107.7684995 -0.107768E+03  0.336E-02    2.23       0.0  T
   2   -107.7685008 -0.122924E-05  0.176E-02    2.23       1.0  T
   3   -107.7685001  0.639715E-06  0.544E-03    2.23       2.1  T
   4   -107.7685008 -0.717557E-06  0.261E-03    2.23       4.4  T
   5   -107.7685010 -0.198722E-06  0.110E-03    2.23      10.6  T
   6   -107.7685011 -0.664179E-07  0.415E-04    2.23      28.0  T
   7   -107.7685011 -0.930166E-08  0.182E-04    2.23      63.9  T
     SCC iter.                  ...        0 min,  0.951 sec
     gradient                   ...        0 min,  0.113 sec
 * total energy  :  -106.0303031 Eh     change       -0.9055092E-04 Eh
   gradient norm :     0.0026093 Eh/α   predicted    -0.6572693E-04 ( -27.41%)
   displ. norm   :     0.1854849 α      lambda       -0.1029399E-03
   maximum displ.:     0.1010295 α      in ANC's #2, #7, #8, ...

........................................................................
.............................. CYCLE   10 ..............................
........................................................................

 iter      E             dE          RMSdq      gap      omega  full diag
   1   -107.7685698 -0.107769E+03  0.286E-02    2.23       0.0  T
   2   -107.7685705 -0.684370E-06  0.156E-02    2.23       1.0  T
   3   -107.7685702  0.272133E-06  0.391E-03    2.23       3.0  T
   4   -107.7685705 -0.253129E-06  0.210E-03    2.23       5.5  T
   5   -107.7685706 -0.150083E-06  0.933E-04    2.23      12.5  T
   6   -107.7685707 -0.439018E-07  0.406E-04    2.23      28.6  T
     SCC iter.                  ...        0 min,  0.902 sec
     gradient                   ...        0 min,  0.119 sec
 * total energy  :  -106.0303822 Eh     change       -0.7911422E-04 Eh
   gradient norm :     0.0024967 Eh/α   predicted    -0.5324309E-04 ( -32.70%)
   displ. norm   :     0.2331871 α      lambda       -0.1133593E-03
   maximum displ.:     0.1295835 α      in ANC's #2, #7, #3, ...

........................................................................
.............................. CYCLE   11 ..............................
........................................................................

 iter      E             dE          RMSdq      gap      omega  full diag
   1   -107.7677114 -0.107768E+03  0.361E-02    2.23       0.0  T
   2   -107.7677123 -0.857736E-06  0.192E-02    2.23       1.0  T
   3   -107.7677120  0.301008E-06  0.452E-03    2.23       2.6  T
   4   -107.7677120 -0.162979E-07  0.293E-03    2.23       4.0  T
   5   -107.7677124 -0.463634E-06  0.819E-04    2.23      14.2  T
   6   -107.7677125 -0.404496E-07  0.293E-04    2.23      39.6  T
     SCC iter.                  ...        0 min,  0.693 sec
     gradient                   ...        0 min,  0.115 sec
 * total energy  :  -106.0304739 Eh     change       -0.9172096E-04 Eh
   gradient norm :     0.0032753 Eh/α   predicted    -0.5976458E-04 ( -34.84%)
   displ. norm   :     0.3071135 α      lambda       -0.1365417E-03
   maximum displ.:     0.1720250 α      in ANC's #2, #3, #7, ...

........................................................................
.............................. CYCLE   12 ..............................
........................................................................

 iter      E             dE          RMSdq      gap      omega  full diag
   1   -107.7668091 -0.107767E+03  0.478E-02    2.24       0.0  T
   2   -107.7668102 -0.117968E-05  0.258E-02    2.24       1.0  T
   3   -107.7668099  0.282494E-06  0.546E-03    2.24       2.1  T
   4   -107.7668098  0.130050E-06  0.350E-03    2.24       3.3  T
   5   -107.7668105 -0.672644E-06  0.828E-04    2.24      14.0  T
   6   -107.7668105 -0.456051E-07  0.320E-04    2.24      36.3  T
     SCC iter.                  ...        0 min,  0.831 sec
     gradient                   ...        0 min,  0.117 sec
 * total energy  :  -106.0305852 Eh     change       -0.1112635E-03 Eh
   gradient norm :     0.0038865 Eh/α   predicted    -0.7471275E-04 ( -32.85%)
   displ. norm   :     0.3637423 α      lambda       -0.1467559E-03
   maximum displ.:     0.2067888 α      in ANC's #2, #3, #7, ...

........................................................................
.............................. CYCLE   13 ..............................
........................................................................

 iter      E             dE          RMSdq      gap      omega  full diag
   1   -107.7661682 -0.107766E+03  0.594E-02    2.25       0.0  T
   2   -107.7661697 -0.149144E-05  0.325E-02    2.25       1.0  T
   3   -107.7661693  0.436338E-06  0.640E-03    2.25       1.8  T
   4   -107.7661691  0.156338E-06  0.414E-03    2.25       2.8  T
   5   -107.7661701 -0.955091E-06  0.939E-04    2.25      12.4  T
   6   -107.7661701 -0.614744E-07  0.387E-04    2.25      30.1  T
     SCC iter.                  ...        0 min,  0.706 sec
     gradient                   ...        0 min,  0.114 sec
 * total energy  :  -106.0307031 Eh     change       -0.1179389E-03 Eh
   gradient norm :     0.0036707 Eh/α   predicted    -0.8308803E-04 ( -29.55%)
   displ. norm   :     0.3627069 α      lambda       -0.1320405E-03
   maximum displ.:     0.2122971 α      in ANC's #2, #3, #7, ...

........................................................................
.............................. CYCLE   14 ..............................
........................................................................

 iter      E             dE          RMSdq      gap      omega  full diag
   1   -107.7665821 -0.107767E+03  0.616E-02    2.26       0.0  T
   2   -107.7665835 -0.138925E-05  0.342E-02    2.26       1.0  T
   3   -107.7665829  0.533679E-06  0.624E-03    2.26       1.9  T
   4   -107.7665830 -0.664193E-07  0.395E-03    2.26       2.9  T
   5   -107.7665838 -0.824228E-06  0.100E-03    2.26      11.6  T
   6   -107.7665839 -0.701765E-07  0.431E-04    2.26      27.0  T
     SCC iter.                  ...        0 min,  0.853 sec
     gradient                   ...        0 min,  0.117 sec
 * total energy  :  -106.0308077 Eh     change       -0.1045564E-03 Eh
   gradient norm :     0.0029512 Eh/α   predicted    -0.7470921E-04 ( -28.55%)
   displ. norm   :     0.3191935 α      lambda       -0.1024518E-03
   maximum displ.:     0.1954291 α      in ANC's #2, #3, #7, ...

........................................................................
.............................. CYCLE   15 ..............................
........................................................................

 iter      E             dE          RMSdq      gap      omega  full diag
   1   -107.7678893 -0.107768E+03  0.562E-02    2.27       0.0  T
   2   -107.7678904 -0.111996E-05  0.316E-02    2.27       1.0  T
   3   -107.7678897  0.760288E-06  0.574E-03    2.27       2.0  T
   4   -107.7678902 -0.514003E-06  0.340E-03    2.27       3.4  T
   5   -107.7678907 -0.551769E-06  0.104E-03    2.27      11.2  T
   6   -107.7678908 -0.730797E-07  0.438E-04    2.27      26.5  T
   7   -107.7678908 -0.417813E-08  0.267E-04    2.27      43.5  T
     SCC iter.                  ...        0 min,  0.881 sec
     gradient                   ...        0 min,  0.114 sec
 * total energy  :  -106.0308876 Eh     change       -0.7989062E-04 Eh
   gradient norm :     0.0022876 Eh/α   predicted    -0.5644910E-04 ( -29.34%)
   displ. norm   :     0.2533667 α      lambda       -0.6669496E-04
   maximum displ.:     0.1642664 α      in ANC's #2, #3, #7, ...

........................................................................
.............................. CYCLE   16 ..............................
........................................................................

 iter      E             dE          RMSdq      gap      omega  full diag
   1   -107.7691194 -0.107769E+03  0.453E-02    2.28       0.0  T
   2   -107.7691201 -0.714198E-06  0.256E-02    2.28       1.0  T
   3   -107.7691193  0.838365E-06  0.495E-03    2.28       2.3  T
   4   -107.7691200 -0.775493E-06  0.262E-03    2.28       4.4  T
   5   -107.7691203 -0.296020E-06  0.854E-04    2.28      13.6  T
   6   -107.7691204 -0.513224E-07  0.333E-04    2.28      34.9  T
     SCC iter.                  ...        0 min,  0.788 sec
     gradient                   ...        0 min,  0.112 sec
 * total energy  :  -106.0309399 Eh     change       -0.5234104E-04 Eh
   gradient norm :     0.0018047 Eh/α   predicted    -0.3549203E-04 ( -32.19%)
   displ. norm   :     0.2561622 α      lambda       -0.3873263E-04
   maximum displ.:     0.1780747 α      in ANC's #2, #3, #7, ...

........................................................................
.............................. CYCLE   17 ..............................
........................................................................

 iter      E             dE          RMSdq      gap      omega  full diag
   1   -107.7700600 -0.107770E+03  0.465E-02    2.28       0.0  T
   2   -107.7700607 -0.753354E-06  0.263E-02    2.29       1.0  T
   3   -107.7700595  0.125654E-05  0.547E-03    2.28       2.1  T
   4   -107.7700607 -0.124551E-05  0.266E-03    2.29       4.4  T
   5   -107.7700610 -0.282073E-06  0.971E-04    2.29      12.0  T
   6   -107.7700611 -0.698047E-07  0.316E-04    2.29      36.8  T
     SCC iter.                  ...        0 min,  0.699 sec
     gradient                   ...        0 min,  0.113 sec
 * total energy  :  -106.0309821 Eh     change       -0.4221008E-04 Eh
   gradient norm :     0.0012857 Eh/α   predicted    -0.1993217E-04 ( -52.78%)
   displ. norm   :     0.1143070 α      lambda       -0.1690305E-04
   maximum displ.:     0.0881920 α      in ANC's #2, #3, #7, ...

........................................................................
.............................. CYCLE   18 ..............................
........................................................................

 iter      E             dE          RMSdq      gap      omega  full diag
   1   -107.7697784 -0.107770E+03  0.197E-02    2.29       0.0  T
   2   -107.7697786 -0.129855E-06  0.112E-02    2.29       1.0  T
   3   -107.7697783  0.300261E-06  0.243E-03    2.29       4.8  T
   4   -107.7697786 -0.310878E-06  0.106E-03    2.29      10.9  T
   5   -107.7697786 -0.409130E-07  0.442E-04    2.29      26.3  T
   6   -107.7697786 -0.136943E-07  0.133E-04    2.29      87.5  T
     SCC iter.                  ...        0 min,  0.791 sec
     gradient                   ...        0 min,  0.120 sec
 * total energy  :  -106.0310041 Eh     change       -0.2197425E-04 Eh
   gradient norm :     0.0009338 Eh/α   predicted    -0.8503718E-05 ( -61.30%)
   displ. norm   :     0.0927363 α      lambda       -0.1746316E-04
   maximum displ.:     0.0693385 α      in ANC's #2, #8, #24, ...

........................................................................
.............................. CYCLE   19 ..............................
........................................................................

 iter      E             dE          RMSdq      gap      omega  full diag
   1   -107.7699894 -0.107770E+03  0.155E-02    2.29       0.0  T
   2   -107.7699895 -0.927723E-07  0.888E-03    2.29       1.3  T
   3   -107.7699893  0.217790E-06  0.197E-03    2.29       5.9  T
   4   -107.7699895 -0.237404E-06  0.741E-04    2.29      15.7  T
   5   -107.7699895 -0.157168E-07  0.385E-04    2.29      30.2  T
     SCC iter.                  ...        0 min,  0.666 sec
     gradient                   ...        0 min,  0.115 sec
 * total energy  :  -106.0310266 Eh     change       -0.2248819E-04 Eh
   gradient norm :     0.0010863 Eh/α   predicted    -0.8767171E-05 ( -61.01%)
   displ. norm   :     0.1314851 α      lambda       -0.2231810E-04
   maximum displ.:     0.0913075 α      in ANC's #2, #8, #4, ...

........................................................................
.............................. CYCLE   20 ..............................
........................................................................

 iter      E             dE          RMSdq      gap      omega  full diag
   1   -107.7689426 -0.107769E+03  0.213E-02    2.29       0.0  T
   2   -107.7689427 -0.177897E-06  0.123E-02    2.29       1.0  T
   3   -107.7689423  0.391641E-06  0.255E-03    2.29       4.6  T
   4   -107.7689428 -0.442884E-06  0.800E-04    2.29      14.5  T
   5   -107.7689428 -0.168383E-07  0.443E-04    2.29      26.2  T
     SCC iter.                  ...        0 min,  0.598 sec
     gradient                   ...        0 min,  0.115 sec
 * total energy  :  -106.0310536 Eh     change       -0.2700886E-04 Eh
   gradient norm :     0.0011588 Eh/α   predicted    -0.1124650E-04 ( -58.36%)
   displ. norm   :     0.1662708 α      lambda       -0.2314989E-04
   maximum displ.:     0.1072812 α      in ANC's #2, #8, #4, ...
 * RMSD in coord.:     0.4269734 α      energy gain  -0.2867423E-01 Eh

generating ANC from exact Hessian ...
Using Lindh-Hessian (1995)
 Shifting diagonal of input Hessian by    9.8590017902163395E-003
 Lowest  eigenvalues of input Hessian
    0.000000    0.000000    0.000000    0.000000    0.000000    0.000000
    0.010000    0.010134    0.010226    0.010287    0.010331    0.010531
    0.010580    0.010652    0.011010    0.011184    0.011588    0.011718
 Highest eigenvalues
    2.002556    2.013921    2.025637    2.072726    2.113448    2.125063


........................................................................
.............................. CYCLE   21 ..............................
........................................................................

 iter      E             dE          RMSdq      gap      omega  full diag
   1   -107.7690448 -0.107769E+03  0.252E-02    2.28       0.0  T
   2   -107.7690450 -0.211136E-06  0.146E-02    2.28       1.0  T
   3   -107.7690444  0.586812E-06  0.298E-03    2.28       3.9  T
   4   -107.7690451 -0.666833E-06  0.940E-04    2.28      12.4  T
   5   -107.7690451 -0.197391E-07  0.549E-04    2.28      21.2  T
     SCC iter.                  ...        0 min,  0.516 sec
     gradient                   ...        0 min,  0.114 sec
 * total energy  :  -106.0310813 Eh     change       -0.2765373E-04 Eh
   gradient norm :     0.0012374 Eh/α   predicted     0.0000000E+00 (-100.00%)
   displ. norm   :     0.0367325 α      lambda       -0.9430925E-05
   maximum displ.:     0.0178459 α      in ANC's #2, #3, #8, ...

........................................................................
.............................. CYCLE   22 ..............................
........................................................................

 iter      E             dE          RMSdq      gap      omega  full diag
   1   -107.7695130 -0.107770E+03  0.735E-03    2.28       0.0  T
   2   -107.7695130 -0.551498E-07  0.392E-03    2.28       3.0  T
   3   -107.7695130  0.140858E-09  0.875E-04    2.28      13.3  T
   4   -107.7695130  0.276620E-08  0.475E-04    2.28      24.5  T
     SCC iter.                  ...        0 min,  0.458 sec
     gradient                   ...        0 min,  0.114 sec
 * total energy  :  -106.0310928 Eh     change       -0.1155587E-04 Eh
   gradient norm :     0.0004719 Eh/α   predicted    -0.4750911E-05 ( -58.89%)
   displ. norm   :     0.1182671 α      lambda       -0.2079844E-04
   maximum displ.:     0.0588959 α      in ANC's #2, #3, #8, ...

........................................................................
.............................. CYCLE   23 ..............................
........................................................................

 iter      E             dE          RMSdq      gap      omega  full diag
   1   -107.7698903 -0.107770E+03  0.181E-02    2.29       0.0  T
   2   -107.7698906 -0.239921E-06  0.101E-02    2.29       1.1  T
   3   -107.7698905  0.233756E-07  0.191E-03    2.29       6.1  T
   4   -107.7698906 -0.293235E-07  0.958E-04    2.29      12.1  T
   5   -107.7698906 -0.394210E-07  0.398E-04    2.29      29.2  T
     SCC iter.                  ...        0 min,  0.482 sec
     gradient                   ...        0 min,  0.112 sec
 * total energy  :  -106.0311132 Eh     change       -0.2035952E-04 Eh
   gradient norm :     0.0015260 Eh/α   predicted    -0.1046493E-04 ( -48.60%)
   displ. norm   :     0.1740886 α      lambda       -0.2535710E-04
   maximum displ.:     0.0918669 α      in ANC's #2, #3, #8, ...

........................................................................
.............................. CYCLE   24 ..............................
........................................................................

 iter      E             dE          RMSdq      gap      omega  full diag
   1   -107.7698202 -0.107770E+03  0.382E-02    2.29       0.0  T
   2   -107.7698220 -0.176310E-05  0.183E-02    2.29       1.0  T
   3   -107.7698221 -0.124944E-06  0.460E-03    2.28       2.5  T
   4   -107.7698221  0.375435E-07  0.229E-03    2.28       5.1  T
   5   -107.7698222 -0.137568E-06  0.976E-04    2.28      11.9  T
   6   -107.7698222 -0.347519E-07  0.516E-04    2.28      22.5  T
     SCC iter.                  ...        0 min,  0.812 sec
     gradient                   ...        0 min,  0.113 sec
 * total energy  :  -106.0311293 Eh     change       -0.1613530E-04 Eh
   gradient norm :     0.0024564 Eh/α   predicted    -0.1285352E-04 ( -20.34%)
   displ. norm   :     0.0656258 α      lambda       -0.1909004E-04
   maximum displ.:     0.0382731 α      in ANC's #2, #3, #8, ...

........................................................................
.............................. CYCLE   25 ..............................
........................................................................

 iter      E             dE          RMSdq      gap      omega  full diag
   1   -107.7698426 -0.107770E+03  0.876E-03    2.29       0.0  T
   2   -107.7698427 -0.778156E-07  0.491E-03    2.29       2.4  T
   3   -107.7698427  0.194533E-07  0.112E-03    2.29      10.4  T
   4   -107.7698427 -0.191488E-07  0.531E-04    2.29      21.9  T
   5   -107.7698427 -0.125547E-07  0.258E-04    2.29      45.1  T
     SCC iter.                  ...        0 min,  0.528 sec
     gradient                   ...        0 min,  0.124 sec
 * total energy  :  -106.0311463 Eh     change       -0.1696520E-04 Eh
   gradient norm :     0.0019427 Eh/α   predicted    -0.9586306E-05 ( -43.49%)
   displ. norm   :     0.2578989 α      lambda       -0.4716606E-04
   maximum displ.:     0.1518327 α      in ANC's #2, #3, #8, ...

........................................................................
.............................. CYCLE   26 ..............................
........................................................................

 iter      E             dE          RMSdq      gap      omega  full diag
   1   -107.7696458 -0.107770E+03  0.352E-02    2.29       0.0  T
   2   -107.7696470 -0.125647E-05  0.191E-02    2.29       1.0  T
   3   -107.7696463  0.707298E-06  0.548E-03    2.29       2.1  T
   4   -107.7696469 -0.628992E-06  0.279E-03    2.29       4.2  T
   5   -107.7696472 -0.283127E-06  0.141E-03    2.29       8.3  T
   6   -107.7696473 -0.117737E-06  0.493E-04    2.29      23.6  T
   7   -107.7696474 -0.555453E-08  0.259E-04    2.29      44.9  T
     SCC iter.                  ...        0 min,  0.983 sec
     gradient                   ...        0 min,  0.112 sec
 * total energy  :  -106.0311905 Eh     change       -0.4417634E-04 Eh
   gradient norm :     0.0012073 Eh/α   predicted    -0.2428038E-04 ( -45.04%)
   displ. norm   :     0.2097052 α      lambda       -0.2322066E-04
   maximum displ.:     0.1240064 α      in ANC's #2, #3, #8, ...

........................................................................
.............................. CYCLE   27 ..............................
........................................................................

 iter      E             dE          RMSdq      gap      omega  full diag
   1   -107.7691784 -0.107769E+03  0.302E-02    2.29       0.0  T
   2   -107.7691790 -0.587769E-06  0.157E-02    2.29       1.0  T
   3   -107.7691788  0.217460E-06  0.356E-03    2.29       3.3  T
   4   -107.7691789 -0.340878E-07  0.230E-03    2.29       5.1  T
   5   -107.7691792 -0.310647E-06  0.732E-04    2.29      15.9  T
   6   -107.7691792 -0.309779E-07  0.265E-04    2.29      43.9  T
     SCC iter.                  ...        0 min,  0.814 sec
     gradient                   ...        0 min,  0.113 sec
 * total energy  :  -106.0312206 Eh     change       -0.3016971E-04 Eh
   gradient norm :     0.0015915 Eh/α   predicted    -0.1183844E-04 ( -60.76%)
   displ. norm   :     0.3155870 α      lambda       -0.4032636E-04
   maximum displ.:     0.1850146 α      in ANC's #2, #3, #8, ...

........................................................................
.............................. CYCLE   28 ..............................
........................................................................

 iter      E             dE          RMSdq      gap      omega  full diag
   1   -107.7687953 -0.107769E+03  0.471E-02    2.29       0.0  T
   2   -107.7687974 -0.202745E-05  0.235E-02    2.29       1.0  T
   3   -107.7687968  0.604422E-06  0.638E-03    2.29       1.8  T
   4   -107.7687972 -0.423822E-06  0.391E-03    2.29       3.0  T
   5   -107.7687977 -0.547916E-06  0.155E-03    2.29       7.5  T
   6   -107.7687979 -0.142680E-06  0.576E-04    2.29      20.2  T
   7   -107.7687979 -0.830842E-08  0.340E-04    2.29      34.2  T
     SCC iter.                  ...        0 min,  1.124 sec
     gradient                   ...        0 min,  0.113 sec
 * total energy  :  -106.0312716 Eh     change       -0.5101471E-04 Eh
   gradient norm :     0.0017558 Eh/α   predicted    -0.2105820E-04 ( -58.72%)
   displ. norm   :     0.4847597 α      lambda       -0.5553172E-04
   maximum displ.:     0.2816598 α      in ANC's #2, #3, #8, ...

........................................................................
.............................. CYCLE   29 ..............................
........................................................................

 iter      E             dE          RMSdq      gap      omega  full diag
   1   -107.7682218 -0.107768E+03  0.675E-02    2.29       0.0  T
   2   -107.7682251 -0.331812E-05  0.341E-02    2.29       1.0  T
   3   -107.7682240  0.109429E-05  0.835E-03    2.29       1.4  T
   4   -107.7682240  0.108029E-07  0.559E-03    2.29       2.1  T
   5   -107.7682258 -0.182913E-05  0.166E-03    2.29       7.0  T
   6   -107.7682260 -0.152678E-06  0.644E-04    2.29      18.1  T
   7   -107.7682260 -0.120436E-07  0.342E-04    2.29      34.0  T
     SCC iter.                  ...        0 min,  0.753 sec
     gradient                   ...        0 min,  0.114 sec
 * total energy  :  -106.0313385 Eh     change       -0.6686320E-04 Eh
   gradient norm :     0.0018796 Eh/α   predicted    -0.3066827E-04 ( -54.13%)
   displ. norm   :     0.5799304 α      lambda       -0.5835184E-04
   maximum displ.:     0.3372347 α      in ANC's #2, #3, #8, ...

........................................................................
.............................. CYCLE   30 ..............................
........................................................................

 iter      E             dE          RMSdq      gap      omega  full diag
   1   -107.7669574 -0.107767E+03  0.755E-02    2.28       0.0  T
   2   -107.7669617 -0.434543E-05  0.390E-02    2.29       1.0  T
   3   -107.7669589  0.282396E-05  0.107E-02    2.29       1.1  T
   4   -107.7669610 -0.210709E-05  0.644E-03    2.29       1.8  T
   5   -107.7669628 -0.175858E-05  0.250E-03    2.29       4.7  T
   6   -107.7669632 -0.384270E-06  0.805E-04    2.29      14.4  T
   7   -107.7669632 -0.124400E-07  0.488E-04    2.29      23.8  T
     SCC iter.                  ...        0 min,  0.949 sec
     gradient                   ...        0 min,  0.114 sec
 * total energy  :  -106.0314071 Eh     change       -0.6855072E-04 Eh
   gradient norm :     0.0024175 Eh/α   predicted    -0.3353911E-04 ( -51.07%)
   displ. norm   :     0.3691783 α      lambda       -0.6317773E-04
   maximum displ.:     0.2182227 α      in ANC's #2, #8, #3, ...

........................................................................
.............................. CYCLE   31 ..............................
........................................................................

 iter      E             dE          RMSdq      gap      omega  full diag
   1   -107.7678865 -0.107768E+03  0.447E-02    2.29       0.0  T
   2   -107.7678877 -0.119168E-05  0.236E-02    2.29       1.0  T
   3   -107.7678868  0.880174E-06  0.588E-03    2.29       2.0  T
   4   -107.7678874 -0.592528E-06  0.356E-03    2.29       3.3  T
   5   -107.7678880 -0.615769E-06  0.122E-03    2.29       9.5  T
   6   -107.7678881 -0.963243E-07  0.396E-04    2.29      29.4  T
   7   -107.7678881 -0.180708E-08  0.237E-04    2.29      49.1  T
     SCC iter.                  ...        0 min,  0.923 sec
     gradient                   ...        0 min,  0.116 sec
 * total energy  :  -106.0314611 Eh     change       -0.5404432E-04 Eh
   gradient norm :     0.0018019 Eh/α   predicted    -0.3589467E-04 ( -33.58%)
   displ. norm   :     0.7233437 α      lambda       -0.8384653E-04
   maximum displ.:     0.4274295 α      in ANC's #2, #8, #1, ...

........................................................................
.............................. CYCLE   32 ..............................
........................................................................

 iter      E             dE          RMSdq      gap      omega  full diag
   1   -107.7682118 -0.107768E+03  0.855E-02    2.29       0.0  T
   2   -107.7682163 -0.447805E-05  0.456E-02    2.29       1.0  T
   3   -107.7682127  0.353231E-05  0.114E-02    2.29       1.0  T
   4   -107.7682153 -0.251532E-05  0.674E-03    2.29       1.7  T
   5   -107.7682175 -0.220476E-05  0.251E-03    2.29       4.6  T
   6   -107.7682179 -0.406268E-06  0.785E-04    2.29      14.8  T
   7   -107.7682179 -0.787199E-08  0.463E-04    2.29      25.1  T
     SCC iter.                  ...        0 min,  1.019 sec
     gradient                   ...        0 min,  0.123 sec
 * total energy  :  -106.0315612 Eh     change       -0.1001462E-03 Eh
   gradient norm :     0.0016491 Eh/α   predicted    -0.5167547E-04 ( -48.40%)
   displ. norm   :     0.5386996 α      lambda       -0.7605622E-04
   maximum displ.:     0.3145703 α      in ANC's #2, #1, #8, ...

........................................................................
.............................. CYCLE   33 ..............................
........................................................................

 iter      E             dE          RMSdq      gap      omega  full diag
   1   -107.7701701 -0.107770E+03  0.605E-02    2.29       0.0  T
   2   -107.7701722 -0.212240E-05  0.331E-02    2.29       1.0  T
   3   -107.7701707  0.159389E-05  0.764E-03    2.29       1.5  T
   4   -107.7701720 -0.131586E-05  0.426E-03    2.30       2.7  T
   5   -107.7701728 -0.795743E-06  0.178E-03    2.29       6.5  T
   6   -107.7701730 -0.205733E-06  0.599E-04    2.29      19.4  T
   7   -107.7701730 -0.559135E-08  0.358E-04    2.29      32.5  T
     SCC iter.                  ...        0 min,  0.894 sec
     gradient                   ...        0 min,  0.115 sec
 * total energy  :  -106.0316574 Eh     change       -0.9617341E-04 Eh
   gradient norm :     0.0018148 Eh/α   predicted    -0.4293341E-04 ( -55.36%)
   displ. norm   :     0.7110863 α      lambda       -0.9898521E-04
   maximum displ.:     0.4109542 α      in ANC's #2, #1, #8, ...

........................................................................
.............................. CYCLE   34 ..............................
........................................................................

 iter      E             dE          RMSdq      gap      omega  full diag
   1   -107.7674837 -0.107767E+03  0.855E-02    2.29       0.0  T
   2   -107.7674882 -0.451503E-05  0.457E-02    2.30       1.0  T
   3   -107.7674853  0.290983E-05  0.109E-02    2.30       1.1  T
   4   -107.7674871 -0.177540E-05  0.652E-03    2.30       1.8  T
   5   -107.7674893 -0.223963E-05  0.239E-03    2.30       4.9  T
   6   -107.7674897 -0.375786E-06  0.755E-04    2.30      15.4  T
   7   -107.7674897 -0.102662E-07  0.412E-04    2.30      28.2  T
     SCC iter.                  ...        0 min,  0.994 sec
     gradient                   ...        0 min,  0.117 sec
 * total energy  :  -106.0317849 Eh     change       -0.1275267E-03 Eh
   gradient norm :     0.0030188 Eh/α   predicted    -0.6061583E-04 ( -52.47%)
   displ. norm   :     0.4944658 α      lambda       -0.1391670E-03
   maximum displ.:     0.2701603 α      in ANC's #2, #1, #8, ...

........................................................................
.............................. CYCLE   35 ..............................
........................................................................

 iter      E             dE          RMSdq      gap      omega  full diag
   1   -107.7681713 -0.107768E+03  0.569E-02    2.30       0.0  T
   2   -107.7681731 -0.174629E-05  0.310E-02    2.30       1.0  T
   3   -107.7681721  0.917066E-06  0.660E-03    2.30       1.8  T
   4   -107.7681727 -0.572725E-06  0.378E-03    2.30       3.1  T
   5   -107.7681734 -0.724002E-06  0.148E-03    2.30       7.9  T
   6   -107.7681736 -0.147176E-06  0.504E-04    2.30      23.1  T
   7   -107.7681736 -0.552410E-08  0.268E-04    2.30      43.3  T
     SCC iter.                  ...        0 min,  0.849 sec
     gradient                   ...        0 min,  0.115 sec
 * total energy  :  -106.0319118 Eh     change       -0.1268163E-03 Eh
   gradient norm :     0.0029232 Eh/α   predicted    -0.8659869E-04 ( -31.71%)
   displ. norm   :     0.6088310 α      lambda       -0.1887859E-03
   maximum displ.:     0.3283416 α      in ANC's #1, #2, #4, ...

........................................................................
.............................. CYCLE   36 ..............................
........................................................................

 iter      E             dE          RMSdq      gap      omega  full diag
   1   -107.7691042 -0.107769E+03  0.707E-02    2.31       0.0  T
   2   -107.7691067 -0.254851E-05  0.389E-02    2.31       1.0  T
   3   -107.7691052  0.154921E-05  0.809E-03    2.31       1.4  T
   4   -107.7691062 -0.105712E-05  0.456E-03    2.31       2.5  T
   5   -107.7691073 -0.106327E-05  0.174E-03    2.31       6.7  T
   6   -107.7691075 -0.200144E-06  0.609E-04    2.31      19.1  T
   7   -107.7691075 -0.988695E-08  0.305E-04    2.31      38.1  T
     SCC iter.                  ...        0 min,  0.937 sec
     gradient                   ...        0 min,  0.112 sec
 * total energy  :  -106.0320832 Eh     change       -0.1714317E-03 Eh
   gradient norm :     0.0027770 Eh/α   predicted    -0.1293856E-03 ( -24.53%)
   displ. norm   :     0.6629014 α      lambda       -0.2117543E-03
   maximum displ.:     0.3711999 α      in ANC's #1, #2, #4, ...

........................................................................
.............................. CYCLE   37 ..............................
........................................................................

 iter      E             dE          RMSdq      gap      omega  full diag
   1   -107.7694362 -0.107769E+03  0.787E-02    2.31       0.0  T
   2   -107.7694393 -0.305625E-05  0.434E-02    2.32       1.0  T
   3   -107.7694371  0.220606E-05  0.906E-03    2.32       1.3  T
   4   -107.7694387 -0.160493E-05  0.501E-03    2.32       2.3  T
   5   -107.7694400 -0.131624E-05  0.186E-03    2.32       6.2  T
   6   -107.7694402 -0.222842E-06  0.676E-04    2.32      17.2  T
   7   -107.7694402 -0.141312E-07  0.320E-04    2.32      36.4  T
     SCC iter.                  ...        0 min,  0.975 sec
     gradient                   ...        0 min,  0.117 sec
 * total energy  :  -106.0322779 Eh     change       -0.1946851E-03 Eh
   gradient norm :     0.0028825 Eh/α   predicted    -0.1524049E-03 ( -21.72%)
   displ. norm   :     0.6397757 α      lambda       -0.2319325E-03
   maximum displ.:     0.3806687 α      in ANC's #1, #2, #4, ...

........................................................................
.............................. CYCLE   38 ..............................
........................................................................

 iter      E             dE          RMSdq      gap      omega  full diag
   1   -107.7713081 -0.107771E+03  0.780E-02    2.32       0.0  T
   2   -107.7713109 -0.273792E-05  0.436E-02    2.33       1.0  T
   3   -107.7713085  0.234911E-05  0.875E-03    2.33       1.3  T
   4   -107.7713105 -0.199703E-05  0.454E-03    2.33       2.6  T
   5   -107.7713116 -0.104517E-05  0.173E-03    2.33       6.7  T
   6   -107.7713117 -0.181524E-06  0.667E-04    2.33      17.4  T
   7   -107.7713118 -0.154402E-07  0.315E-04    2.33      37.0  T
     SCC iter.                  ...        0 min,  0.881 sec
     gradient                   ...        0 min,  0.113 sec
 * total energy  :  -106.0324880 Eh     change       -0.2101723E-03 Eh
   gradient norm :     0.0031702 Eh/α   predicted    -0.1634333E-03 ( -22.24%)
   displ. norm   :     0.6843621 α      lambda       -0.2483483E-03
   maximum displ.:     0.4147723 α      in ANC's #1, #2, #4, ...

........................................................................
.............................. CYCLE   39 ..............................
........................................................................

 iter      E             dE          RMSdq      gap      omega  full diag
   1   -107.7707204 -0.107771E+03  0.853E-02    2.33       0.0  T
   2   -107.7707235 -0.310598E-05  0.480E-02    2.34       1.0  T
   3   -107.7707204  0.306974E-05  0.936E-03    2.34       1.2  T
   4   -107.7707231 -0.267990E-05  0.481E-03    2.34       2.4  T
   5   -107.7707243 -0.122674E-05  0.181E-03    2.34       6.4  T
   6   -107.7707245 -0.197514E-06  0.711E-04    2.34      16.4  T
   7   -107.7707245 -0.180523E-07  0.328E-04    2.34      35.5  T
     SCC iter.                  ...        0 min,  0.872 sec
     gradient                   ...        0 min,  0.119 sec
 * total energy  :  -106.0327152 Eh     change       -0.2271026E-03 Eh
   gradient norm :     0.0034418 Eh/α   predicted    -0.1823335E-03 ( -19.71%)
   displ. norm   :     0.5925405 α      lambda       -0.2724190E-03
   maximum displ.:     0.3906150 α      in ANC's #1, #2, #3, ...

........................................................................
.............................. CYCLE   40 ..............................
........................................................................

 iter      E             dE          RMSdq      gap      omega  full diag
   1   -107.7756714 -0.107776E+03  0.795E-02    2.35       0.0  T
   2   -107.7756741 -0.279286E-05  0.459E-02    2.35       1.0  T
   3   -107.7756713  0.289683E-05  0.856E-03    2.35       1.4  T
   4   -107.7756744 -0.318343E-05  0.351E-03    2.35       3.3  T
   5   -107.7756749 -0.495322E-06  0.157E-03    2.35       7.4  T
   6   -107.7756751 -0.119663E-06  0.652E-04    2.35      17.8  T
   7   -107.7756751 -0.166674E-07  0.344E-04    2.35      33.8  T
     SCC iter.                  ...        0 min,  1.012 sec
     gradient                   ...        0 min,  0.114 sec
 * total energy  :  -106.0329408 Eh     change       -0.2256948E-03 Eh
   gradient norm :     0.0042112 Eh/α   predicted    -0.1840389E-03 ( -18.46%)
   displ. norm   :     0.7127174 α      lambda       -0.2866542E-03
   maximum displ.:     0.4545525 α      in ANC's #1, #2, #8, ...

........................................................................
.............................. CYCLE   41 ..............................
........................................................................

 iter      E             dE          RMSdq      gap      omega  full diag
   1   -107.7712524 -0.107771E+03  0.934E-02    2.35       0.0  T
   2   -107.7712562 -0.375802E-05  0.535E-02    2.35       1.0  T
   3   -107.7712529  0.324635E-05  0.940E-03    2.35       1.2  T
   4   -107.7712560 -0.308922E-05  0.472E-03    2.36       2.5  T
   5   -107.7712572 -0.115547E-05  0.186E-03    2.36       6.2  T
   6   -107.7712573 -0.195531E-06  0.802E-04    2.36      14.5  T
   7   -107.7712574 -0.250513E-07  0.381E-04    2.36      30.5  T
     SCC iter.                  ...        0 min,  0.846 sec
     gradient                   ...        0 min,  0.121 sec
 * total energy  :  -106.0331828 Eh     change       -0.2419267E-03 Eh
   gradient norm :     0.0040267 Eh/α   predicted    -0.2161351E-03 ( -10.66%)
   displ. norm   :     0.4891090 α      lambda       -0.2158165E-03
   maximum displ.:     0.3383256 α      in ANC's #1, #3, #2, ...

........................................................................
.............................. CYCLE   42 ..............................
........................................................................

 iter      E             dE          RMSdq      gap      omega  full diag
   1   -107.7712878 -0.107771E+03  0.672E-02    2.35       0.0  T
   2   -107.7712895 -0.168026E-05  0.390E-02    2.36       1.0  T
   3   -107.7712879  0.163663E-05  0.653E-03    2.36       1.8  T
   4   -107.7712897 -0.185948E-05  0.277E-03    2.36       4.2  T
   5   -107.7712900 -0.292441E-06  0.116E-03    2.36      10.0  T
   6   -107.7712901 -0.635381E-07  0.518E-04    2.36      22.5  T
   7   -107.7712901 -0.120254E-07  0.258E-04    2.36      45.0  T
     SCC iter.                  ...        0 min,  0.837 sec
     gradient                   ...        0 min,  0.113 sec
 * total energy  :  -106.0333668 Eh     change       -0.1840034E-03 Eh
   gradient norm :     0.0033710 Eh/α   predicted    -0.1337257E-03 ( -27.32%)
   displ. norm   :     0.5202134 α      lambda       -0.2199608E-03
   maximum displ.:     0.3682128 α      in ANC's #1, #3, #2, ...
 * RMSD in coord.:     1.0204052 α      energy gain  -0.2313168E-02 Eh

generating ANC from exact Hessian ...
Using Lindh-Hessian (1995)
 Shifting diagonal of input Hessian by    9.8036011827370255E-003
 Lowest  eigenvalues of input Hessian
    0.000000    0.000000    0.000000    0.000000    0.000000    0.000000
    0.010000    0.010131    0.010201    0.010308    0.010429    0.010469
    0.010721    0.010768    0.011130    0.011400    0.011620    0.011670
 Highest eigenvalues
    2.004547    2.015969    2.027673    2.072419    2.111118    2.125586


........................................................................
.............................. CYCLE   43 ..............................
........................................................................

 iter      E             dE          RMSdq      gap      omega  full diag
   1   -107.7723387 -0.107772E+03  0.702E-02    2.35       0.0  T
   2   -107.7723407 -0.195205E-05  0.409E-02    2.35       1.0  T
   3   -107.7723386  0.204417E-05  0.730E-03    2.35       1.6  T
   4   -107.7723411 -0.250231E-05  0.281E-03    2.35       4.1  T
   5   -107.7723414 -0.252681E-06  0.113E-03    2.35      10.3  T
   6   -107.7723414 -0.462314E-07  0.527E-04    2.35      22.1  T
   7   -107.7723414 -0.682927E-08  0.328E-04    2.35      35.4  T
     SCC iter.                  ...        0 min,  0.978 sec
     gradient                   ...        0 min,  0.112 sec
 * total energy  :  -106.0335452 Eh     change       -0.1784085E-03 Eh
   gradient norm :     0.0032579 Eh/α   predicted     0.0000000E+00 (-100.00%)
   displ. norm   :     0.0578344 α      lambda       -0.1038987E-04
   maximum displ.:     0.0330061 α      in ANC's #1, #7, #2, ...

........................................................................
.............................. CYCLE   44 ..............................
........................................................................

 iter      E             dE          RMSdq      gap      omega  full diag
   1   -107.7732585 -0.107773E+03  0.116E-02    2.35       0.0  T
   2   -107.7732587 -0.137355E-06  0.660E-03    2.35       1.8  T
   3   -107.7732585  0.103314E-06  0.158E-03    2.35       7.4  T
   4   -107.7732587 -0.123828E-06  0.590E-04    2.35      19.7  T
   5   -107.7732587 -0.138666E-07  0.197E-04    2.35      58.9  T
     SCC iter.                  ...        0 min,  0.671 sec
     gradient                   ...        0 min,  0.113 sec
 * total energy  :  -106.0335924 Eh     change       -0.4726212E-04 Eh
   gradient norm :     0.0015582 Eh/α   predicted    -0.2766475E-04 ( -41.47%)
   displ. norm   :     0.2947687 α      lambda       -0.1305422E-03
   maximum displ.:     0.1555993 α      in ANC's #1, #7, #5, ...

........................................................................
.............................. CYCLE   45 ..............................
........................................................................

 iter      E             dE          RMSdq      gap      omega  full diag
   1   -107.7747136 -0.107775E+03  0.557E-02    2.35       0.0  T
   2   -107.7747154 -0.181137E-05  0.316E-02    2.35       1.0  T
   3   -107.7747134  0.200965E-05  0.673E-03    2.35       1.7  T
   4   -107.7747158 -0.237631E-05  0.250E-03    2.35       4.7  T
   5   -107.7747160 -0.237906E-06  0.677E-04    2.35      17.2  T
   6   -107.7747160 -0.117468E-07  0.333E-04    2.35      34.9  T
     SCC iter.                  ...        0 min,  0.900 sec
     gradient                   ...        0 min,  0.119 sec
 * total energy  :  -106.0337101 Eh     change       -0.1176298E-03 Eh
   gradient norm :     0.0044005 Eh/α   predicted    -0.6779387E-04 ( -42.37%)
   displ. norm   :     0.1279520 α      lambda       -0.5833943E-04
   maximum displ.:     0.0702250 α      in ANC's #1, #7, #5, ...

........................................................................
.............................. CYCLE   46 ..............................
........................................................................

 iter      E             dE          RMSdq      gap      omega  full diag
   1   -107.7739784 -0.107774E+03  0.222E-02    2.35       0.0  T
   2   -107.7739786 -0.276346E-06  0.127E-02    2.35       1.0  T
   3   -107.7739784  0.223137E-06  0.229E-03    2.35       5.1  T
   4   -107.7739787 -0.256405E-06  0.931E-04    2.35      12.5  T
   5   -107.7739787 -0.438406E-07  0.330E-04    2.35      35.2  T
     SCC iter.                  ...        0 min,  0.682 sec
     gradient                   ...        0 min,  0.118 sec
 * total energy  :  -106.0337603 Eh     change       -0.5018390E-04 Eh
   gradient norm :     0.0036894 Eh/α   predicted    -0.2964837E-04 ( -40.92%)
   displ. norm   :     0.2627658 α      lambda       -0.1144483E-03
   maximum displ.:     0.1435897 α      in ANC's #1, #7, #5, ...

........................................................................
.............................. CYCLE   47 ..............................
........................................................................

 iter      E             dE          RMSdq      gap      omega  full diag
   1   -107.7720957 -0.107772E+03  0.440E-02    2.34       0.0  T
   2   -107.7720968 -0.116984E-05  0.249E-02    2.33       1.0  T
   3   -107.7720957  0.110303E-05  0.571E-03    2.33       2.0  T
   4   -107.7720969 -0.121378E-05  0.228E-03    2.33       5.1  T
   5   -107.7720972 -0.208236E-06  0.110E-03    2.33      10.6  T
   6   -107.7720972 -0.486198E-07  0.558E-04    2.33      20.8  T
   7   -107.7720972 -0.131271E-07  0.305E-04    2.33      38.1  T
     SCC iter.                  ...        0 min,  0.766 sec
     gradient                   ...        0 min,  0.112 sec
 * total energy  :  -106.0338389 Eh     change       -0.7860991E-04 Eh
   gradient norm :     0.0019210 Eh/α   predicted    -0.6122057E-04 ( -22.12%)
   displ. norm   :     0.3387842 α      lambda       -0.7148869E-04
   maximum displ.:     0.1901980 α      in ANC's #1, #5, #7, ...

........................................................................
.............................. CYCLE   48 ..............................
........................................................................

 iter      E             dE          RMSdq      gap      omega  full diag
   1   -107.7703361 -0.107770E+03  0.557E-02    2.33       0.0  T
   2   -107.7703382 -0.205359E-05  0.310E-02    2.33       1.0  T
   3   -107.7703371  0.110065E-05  0.635E-03    2.34       1.8  T
   4   -107.7703382 -0.115077E-05  0.304E-03    2.34       3.8  T
   5   -107.7703387 -0.477276E-06  0.913E-04    2.34      12.7  T
   6   -107.7703387 -0.940047E-08  0.433E-04    2.33      26.9  T
     SCC iter.                  ...        0 min,  0.885 sec
     gradient                   ...        0 min,  0.113 sec
 * total energy  :  -106.0339010 Eh     change       -0.6211615E-04 Eh
   gradient norm :     0.0033038 Eh/α   predicted    -0.3756813E-04 ( -39.52%)
   displ. norm   :     0.1355479 α      lambda       -0.5060369E-04
   maximum displ.:     0.0774403 α      in ANC's #1, #5, #7, ...

........................................................................
.............................. CYCLE   49 ..............................
........................................................................

 iter      E             dE          RMSdq      gap      omega  full diag
   1   -107.7708801 -0.107771E+03  0.205E-02    2.33       0.0  T
   2   -107.7708804 -0.302223E-06  0.120E-02    2.33       1.0  T
   3   -107.7708800  0.474331E-06  0.300E-03    2.33       3.9  T
   4   -107.7708804 -0.488455E-06  0.115E-03    2.33      10.1  T
   5   -107.7708805 -0.788233E-07  0.537E-04    2.33      21.7  T
   6   -107.7708805 -0.107705E-07  0.247E-04    2.33      47.1  T
     SCC iter.                  ...        0 min,  0.778 sec
     gradient                   ...        0 min,  0.113 sec
 * total energy  :  -106.0339474 Eh     change       -0.4644326E-04 Eh
   gradient norm :     0.0031482 Eh/α   predicted    -0.2578207E-04 ( -44.49%)
   displ. norm   :     0.3554461 α      lambda       -0.1562751E-03
   maximum displ.:     0.1978285 α      in ANC's #1, #5, #7, ...

........................................................................
.............................. CYCLE   50 ..............................
........................................................................

 iter      E             dE          RMSdq      gap      omega  full diag
   1   -107.7731352 -0.107773E+03  0.553E-02    2.33       0.0  T
   2   -107.7731372 -0.199389E-05  0.326E-02    2.33       1.0  T
   3   -107.7731345  0.268914E-05  0.718E-03    2.34       1.6  T
   4   -107.7731375 -0.298312E-05  0.261E-03    2.34       4.5  T
   5   -107.7731378 -0.311587E-06  0.129E-03    2.34       9.0  T
   6   -107.7731379 -0.619112E-07  0.568E-04    2.34      20.5  T
   7   -107.7731379 -0.200446E-07  0.203E-04    2.34      57.3  T
     SCC iter.                  ...        0 min,  0.980 sec
     gradient                   ...        0 min,  0.113 sec
 * total energy  :  -106.0340702 Eh     change       -0.1227615E-03 Eh
   gradient norm :     0.0023886 Eh/α   predicted    -0.8800987E-04 ( -28.31%)
   displ. norm   :     0.4465858 α      lambda       -0.1236760E-03
   maximum displ.:     0.2564860 α      in ANC's #1, #5, #7, ...

........................................................................
.............................. CYCLE   51 ..............................
........................................................................

 iter      E             dE          RMSdq      gap      omega  full diag
   1   -107.7732718 -0.107773E+03  0.673E-02    2.33       0.0  T
   2   -107.7732740 -0.224323E-05  0.396E-02    2.34       1.0  T
   3   -107.7732697  0.436462E-05  0.851E-03    2.34       1.4  T
   4   -107.7732747 -0.498068E-05  0.280E-03    2.34       4.1  T
   5   -107.7732750 -0.312565E-06  0.131E-03    2.34       8.9  T
   6   -107.7732750 -0.558134E-07  0.616E-04    2.34      18.9  T
   7   -107.7732751 -0.268520E-07  0.187E-04    2.34      62.3  T
     SCC iter.                  ...        0 min,  0.996 sec
     gradient                   ...        0 min,  0.114 sec
 * total energy  :  -106.0341622 Eh     change       -0.9205437E-04 Eh
   gradient norm :     0.0029631 Eh/α   predicted    -0.7417145E-04 ( -19.43%)
   displ. norm   :     0.3327275 α      lambda       -0.7103812E-04
   maximum displ.:     0.2002494 α      in ANC's #1, #5, #7, ...

........................................................................
.............................. CYCLE   52 ..............................
........................................................................

 iter      E             dE          RMSdq      gap      omega  full diag
   1   -107.7735365 -0.107774E+03  0.470E-02    2.34       0.0  T
   2   -107.7735376 -0.102223E-05  0.277E-02    2.34       1.0  T
   3   -107.7735354  0.214764E-05  0.581E-03    2.34       2.0  T
   4   -107.7735379 -0.247223E-05  0.190E-03    2.34       6.1  T
   5   -107.7735380 -0.140252E-06  0.810E-04    2.34      14.3  T
   6   -107.7735380 -0.196301E-07  0.409E-04    2.34      28.4  T
     SCC iter.                  ...        0 min,  0.818 sec
     gradient                   ...        0 min,  0.119 sec
 * total energy  :  -106.0342197 Eh     change       -0.5741378E-04 Eh
   gradient norm :     0.0026294 Eh/α   predicted    -0.3945194E-04 ( -31.28%)
   displ. norm   :     0.2389333 α      lambda       -0.5741570E-04
   maximum displ.:     0.1531142 α      in ANC's #1, #5, #7, ...

........................................................................
.............................. CYCLE   53 ..............................
........................................................................

 iter      E             dE          RMSdq      gap      omega  full diag
   1   -107.7741519 -0.107774E+03  0.312E-02    2.34       0.0  T
   2   -107.7741525 -0.597872E-06  0.183E-02    2.34       1.0  T
   3   -107.7741512  0.121322E-05  0.456E-03    2.34       2.5  T
   4   -107.7741527 -0.144118E-05  0.130E-03    2.34       8.9  T
   5   -107.7741527 -0.422221E-07  0.550E-04    2.34      21.1  T
   6   -107.7741527 -0.965690E-08  0.307E-04    2.34      37.8  T
     SCC iter.                  ...        0 min,  0.709 sec
     gradient                   ...        0 min,  0.111 sec
 * total energy  :  -106.0342663 Eh     change       -0.4664129E-04 Eh
   gradient norm :     0.0014706 Eh/α   predicted    -0.3035096E-04 ( -34.93%)
   displ. norm   :     0.2864405 α      lambda       -0.3981958E-04
   maximum displ.:     0.1928070 α      in ANC's #1, #5, #3, ...

........................................................................
.............................. CYCLE   54 ..............................
........................................................................

 iter      E             dE          RMSdq      gap      omega  full diag
   1   -107.7736463 -0.107774E+03  0.367E-02    2.34       0.0  T
   2   -107.7736474 -0.112707E-05  0.213E-02    2.34       1.0  T
   3   -107.7736452  0.217789E-05  0.669E-03    2.34       1.7  T
   4   -107.7736479 -0.263564E-05  0.182E-03    2.34       6.4  T
   5   -107.7736479 -0.596741E-07  0.743E-04    2.34      15.6  T
   6   -107.7736479 -0.223892E-07  0.371E-04    2.34      31.3  T
     SCC iter.                  ...        0 min,  0.825 sec
     gradient                   ...        0 min,  0.114 sec
 * total energy  :  -106.0343093 Eh     change       -0.4297337E-04 Eh
   gradient norm :     0.0013278 Eh/α   predicted    -0.2063953E-04 ( -51.97%)
   displ. norm   :     0.1260678 α      lambda       -0.1497932E-04
   maximum displ.:     0.0938827 α      in ANC's #1, #3, #5, ...

........................................................................
.............................. CYCLE   55 ..............................
........................................................................

 iter      E             dE          RMSdq      gap      omega  full diag
   1   -107.7735876 -0.107774E+03  0.158E-02    2.33       0.0  T
   2   -107.7735878 -0.137754E-06  0.899E-03    2.33       1.3  T
   3   -107.7735874  0.335881E-06  0.255E-03    2.33       4.6  T
   4   -107.7735878 -0.393879E-06  0.763E-04    2.33      15.2  T
   5   -107.7735878 -0.103728E-07  0.315E-04    2.33      36.9  T
     SCC iter.                  ...        0 min,  0.677 sec
     gradient                   ...        0 min,  0.112 sec
 * total energy  :  -106.0343285 Eh     change       -0.1922987E-04 Eh
   gradient norm :     0.0012465 Eh/α   predicted    -0.7544416E-05 ( -60.77%)
   displ. norm   :     0.0774586 α      lambda       -0.1333765E-04
   maximum displ.:     0.0615201 α      in ANC's #1, #3, #12, ...

........................................................................
.............................. CYCLE   56 ..............................
........................................................................

 iter      E             dE          RMSdq      gap      omega  full diag
   1   -107.7740730 -0.107774E+03  0.146E-02    2.33       0.0  T
   2   -107.7740732 -0.236991E-06  0.730E-03    2.33       1.6  T
   3   -107.7740732  0.464672E-07  0.220E-03    2.33       5.3  T
   4   -107.7740732 -0.723656E-07  0.101E-03    2.33      11.5  T
   5   -107.7740733 -0.222227E-07  0.298E-04    2.33      38.9  T
   6   -107.7740733 -0.466112E-08  0.125E-04    2.33      93.4  T
     SCC iter.                  ...        0 min,  0.759 sec
     gradient                   ...        0 min,  0.115 sec
 * total energy  :  -106.0343448 Eh     change       -0.1629382E-04 Eh
   gradient norm :     0.0009971 Eh/α   predicted    -0.6687941E-05 ( -58.95%)
   displ. norm   :     0.0892011 α      lambda       -0.1531776E-04
   maximum displ.:     0.0671754 α      in ANC's #1, #3, #13, ...

........................................................................
.............................. CYCLE   57 ..............................
........................................................................

 iter      E             dE          RMSdq      gap      omega  full diag
   1   -107.7741382 -0.107774E+03  0.180E-02    2.33       0.0  T
   2   -107.7741385 -0.274837E-06  0.100E-02    2.33       1.2  T
   3   -107.7741384  0.990439E-07  0.255E-03    2.33       4.6  T
   4   -107.7741385 -0.136414E-06  0.104E-03    2.33      11.1  T
   5   -107.7741385 -0.193330E-07  0.391E-04    2.33      29.7  T
   6   -107.7741385 -0.101033E-07  0.119E-04    2.33      98.1  T
     SCC iter.                  ...        0 min,  0.733 sec
     gradient                   ...        0 min,  0.121 sec
 * total energy  :  -106.0343624 Eh     change       -0.1762948E-04 Eh
   gradient norm :     0.0007803 Eh/α   predicted    -0.7689939E-05 ( -56.38%)
   displ. norm   :     0.0900175 α      lambda       -0.1198282E-04
   maximum displ.:     0.0632436 α      in ANC's #1, #2, #7, ...

........................................................................
.............................. CYCLE   58 ..............................
........................................................................

 iter      E             dE          RMSdq      gap      omega  full diag
   1   -107.7740900 -0.107774E+03  0.159E-02    2.33       0.0  T
   2   -107.7740901 -0.114173E-06  0.888E-03    2.33       1.3  T
   3   -107.7740901  0.307169E-07  0.160E-03    2.34       7.3  T
   4   -107.7740901 -0.299831E-07  0.744E-04    2.34      15.6  T
   5   -107.7740902 -0.300194E-07  0.202E-04    2.34      57.4  T
     SCC iter.                  ...        0 min,  0.711 sec
     gradient                   ...        0 min,  0.124 sec
 * total energy  :  -106.0343779 Eh     change       -0.1545046E-04 Eh
[...]
        96        2.0000           -0.4937665             -13.4361
        97        2.0000           -0.4843109             -13.1788
        98        2.0000           -0.4795606             -13.0495
        99        2.0000           -0.4692606             -12.7692 (HOMO)
       100                         -0.3831789             -10.4268 (LUMO)
       101                         -0.3707177             -10.0877
       102                         -0.3582509              -9.7485
       103                         -0.3512987              -9.5593
       104                         -0.3328110              -9.0562
       105                         -0.3321031              -9.0370
       106                         -0.3271552              -8.9023
       107                         -0.3247384              -8.8366
       108                         -0.2971488              -8.0858
       109                         -0.2906812              -7.9098
       110                         -0.2831539              -7.7050
       ...                                ...                  ...
       206                          1.0062646              27.3819
      -------------------------------------------------------------
                  HL-Gap            0.0860817 Eh            2.3424 eV
             Fermi-level           -0.4262197 Eh          -11.5980 eV

     #   Z          covCN         q      C6AA      α(0)
     1   6 C        3.756    -0.033    21.212     6.567
     2   7 N        2.684    -0.127    23.751     7.238
     3   6 C        3.331     0.052    24.568     7.864
     4   6 C        2.913    -0.046    29.147     8.853
     5   6 C        2.920    -0.034    28.849     8.808
     6   6 C        2.986     0.013    27.716     8.636
     7   6 C        2.919    -0.031    28.762     8.795
     8   6 C        2.915    -0.021    28.529     8.759
     9   6 C        2.917    -0.022    28.546     8.761
    10   6 C        2.917    -0.032    28.790     8.799
    11   6 C        2.987     0.011    27.762     8.643
    12   6 C        2.981    -0.007    28.187     8.709
    13   6 C        2.978    -0.013    28.329     8.731
    14   6 C        3.063     0.056    26.694     8.472
    15   6 C        2.916    -0.050    29.231     8.866
    16   6 C        2.918    -0.033    28.819     8.803
    17   6 C        2.986     0.012    27.750     8.641
    18   6 C        2.919    -0.031    28.776     8.797
    19   6 C        2.915    -0.023    28.582     8.767
    20   6 C        2.917    -0.023    28.583     8.767
    21   6 C        2.917    -0.034    28.835     8.806
    22   6 C        2.988     0.012    27.746     8.640
    23   7 N        2.683    -0.116    23.524     7.203
    24   6 C        3.909    -0.040    21.236     6.550
    25  15 P        4.699     0.277   148.522    21.892
    26  16 S        1.899    -0.063   143.642    20.172
    27  16 S        2.089    -0.051   143.176    20.139
    28   6 C        2.974     0.036    27.184     8.552
    29   6 C        2.953    -0.030    28.754     8.795
    30   6 C        2.922    -0.023    28.588     8.768
    31   6 C        2.919    -0.022    28.549     8.762
    32   6 C        2.922    -0.024    28.595     8.769
    33   6 C        2.961    -0.032    28.807     8.804
    34   7 N        2.680    -0.132    23.860     7.255
    35   6 C        3.833    -0.047    21.394     6.581
    36   6 C        3.937     0.085    19.114     6.213
    37   6 C        3.773    -0.125    22.920     6.822
    38   6 C        3.761    -0.125    22.935     6.827
    39   6 C        3.759    -0.125    22.953     6.830
    40   1 H        0.924     0.060     2.201     2.320
    41   1 H        0.924     0.061     2.189     2.313
    42   1 H        0.925     0.060     2.200     2.319
    43   1 H        0.926     0.038     2.479     2.462
    44   1 H        0.926     0.053     2.279     2.361
    45   1 H        0.926     0.049     2.328     2.386
    46   1 H        0.926     0.053     2.281     2.362
    47   1 H        0.926     0.050     2.315     2.379
    48   1 H        0.926     0.041     2.436     2.441
    49   1 H        0.926     0.049     2.327     2.386
    50   1 H        0.926     0.053     2.283     2.363
    51   1 H        0.926     0.048     2.346     2.395
    52   1 H        0.926     0.050     2.319     2.381
    53   1 H        0.926     0.047     2.361     2.403
    54   1 H        0.926     0.036     2.506     2.476
    55   1 H        0.924     0.065     2.142     2.289
    56   1 H        0.925     0.072     2.069     2.249
    57   1 H        0.925     0.074     2.038     2.233
    58   1 H        0.926     0.053     2.281     2.362
    59   1 H        0.926     0.058     2.220     2.330
    60   1 H        0.926     0.058     2.225     2.333
    61   1 H        0.926     0.051     2.302     2.373
    62   1 H        0.926     0.047     2.353     2.399
    63   1 H        0.925     0.070     2.086     2.259
    64   1 H        0.924     0.061     2.190     2.314
    65   1 H        0.925     0.069     2.093     2.262
    66   1 H        0.925     0.055     2.262     2.352
    67   1 H        0.925     0.061     2.193     2.316
    68   1 H        0.925     0.072     2.058     2.244
    69   1 H        0.925     0.052     2.301     2.372
    70   1 H        0.925     0.067     2.119     2.276
    71   1 H        0.925     0.058     2.220     2.330
    72   1 H        0.925     0.050     2.314     2.379
    73   1 H        0.925     0.051     2.314     2.379
    74   1 H        0.925     0.067     2.120     2.277

 Mol. C6AA /au·bohr⁶  :      74839.874459
 Mol. C8AA /au·bohr⁸  :    2031570.543952
 Mol. α(0) /au        :        438.726678


Wiberg/Mayer (AO) data.
largest (>0.10) Wiberg bond orders for each atom

 ---------------------------------------------------------------------------
     #   Z sym  total        # sym  WBO       # sym  WBO       # sym  WBO
 ---------------------------------------------------------------------------
     1   6 C    3.960 --    41 H    0.976     2 N    0.976    40 H    0.976
                            42 H    0.968
     2   7 N    3.400 --    25 P    1.218     1 C    0.976     3 C    0.949
     3   6 C    3.951 --    12 C    1.452     4 C    1.288     2 N    0.949
     4   6 C    3.989 --     5 C    1.557     3 C    1.288    43 H    0.961
     5   6 C    3.985 --     4 C    1.557     6 C    1.273    44 H    0.966
                            12 C    0.105
     6   6 C    3.988 --     7 C    1.283     5 C    1.273    11 C    1.252
     7   6 C    3.988 --     8 C    1.553     6 C    1.283    45 H    0.967
                            10 C    0.117
     8   6 C    3.986 --     7 C    1.553     9 C    1.324    46 H    0.969
     9   6 C    3.989 --    10 C    1.551     8 C    1.324    47 H    0.969
    10   6 C    3.988 --     9 C    1.551    11 C    1.286    48 H    0.965
                             7 C    0.117
    11   6 C    3.987 --    10 C    1.286     6 C    1.252    12 C    1.234
    12   6 C    3.987 --     3 C    1.452    11 C    1.234    13 C    1.029
                             5 C    0.105
    13   6 C    3.985 --    14 C    1.447    22 C    1.235    12 C    1.029
                            16 C    0.106
    14   6 C    3.949 --    13 C    1.447    15 C    1.283    23 N    0.995
    15   6 C    3.988 --    16 C    1.556    14 C    1.283    49 H    0.962
    16   6 C    3.985 --    15 C    1.556    17 C    1.272    50 H    0.966
                            13 C    0.106
    17   6 C    3.988 --    18 C    1.281    16 C    1.272    22 C    1.253
    18   6 C    3.988 --    19 C    1.554    17 C    1.281    51 H    0.967
                            21 C    0.117
    19   6 C    3.985 --    18 C    1.554    20 C    1.323    52 H    0.969
    20   6 C    3.990 --    21 C    1.553    19 C    1.323    53 H    0.970
    21   6 C    3.989 --    20 C    1.553    22 C    1.284    54 H    0.965
                            18 C    0.117
    22   6 C    3.987 --    21 C    1.284    17 C    1.253    13 C    1.235
    23   7 N    3.441 --    25 P    1.211    14 C    0.995    24 C    0.970
    24   6 C    3.959 --    57 H    0.977    55 H    0.970    23 N    0.970
                            56 H    0.962
    25  15 P    5.145 --    34 N    1.250     2 N    1.218    23 N    1.211
                            26 S    0.972
    26  16 S    2.459 --    27 S    1.155    25 P    0.972
    27  16 S    2.347 --    26 S    1.155    28 C    0.975
    28   6 C    3.954 --    33 C    1.408    29 C    1.406    27 S    0.975
                            31 C    0.103
    29   6 C    3.989 --    30 C    1.443    28 C    1.406    58 H    0.967
                            32 C    0.110
    30   6 C    3.990 --    29 C    1.443    31 C    1.433    59 H    0.967
                            33 C    0.109
    31   6 C    3.981 --    32 C    1.439    30 C    1.433    60 H    0.969
                            28 C    0.103
    32   6 C    3.991 --    31 C    1.439    33 C    1.438    61 H    0.968
                            29 C    0.110
    33   6 C    3.989 --    32 C    1.438    28 C    1.408    62 H    0.963
                            30 C    0.109
    34   7 N    3.404 --    25 P    1.250    35 C    0.971    36 C    0.923
    35   6 C    3.957 --    64 H    0.976    63 H    0.973    34 N    0.971
                            65 H    0.964
    36   6 C    3.956 --    37 C    0.998    39 C    0.995    38 C    0.994
                            34 N    0.923
    37   6 C    3.992 --    36 C    0.998    68 H    0.976    66 H    0.974
                            67 H    0.943
    38   6 C    3.988 --    36 C    0.994    69 H    0.983    71 H    0.982
                            70 H    0.979
    39   6 C    3.988 --    36 C    0.995    72 H    0.982    74 H    0.980
                            73 H    0.973
    40   1 H    0.996 --     1 C    0.976
    41   1 H    0.996 --     1 C    0.976
    42   1 H    0.996 --     1 C    0.968
    43   1 H    0.997 --     4 C    0.961
    44   1 H    0.996 --     5 C    0.966
    45   1 H    0.997 --     7 C    0.967
    46   1 H    0.996 --     8 C    0.969
    47   1 H    0.997 --     9 C    0.969
    48   1 H    0.998 --    10 C    0.965
    49   1 H    0.997 --    15 C    0.962
    50   1 H    0.996 --    16 C    0.966
    51   1 H    0.997 --    18 C    0.967
    52   1 H    0.997 --    19 C    0.969
    53   1 H    0.997 --    20 C    0.970
    54   1 H    0.998 --    21 C    0.965
    55   1 H    0.995 --    24 C    0.970
    56   1 H    0.994 --    24 C    0.962
    57   1 H    0.994 --    24 C    0.977
    58   1 H    0.997 --    29 C    0.967
    59   1 H    0.997 --    30 C    0.967
    60   1 H    0.996 --    31 C    0.969
    61   1 H    0.997 --    32 C    0.968
    62   1 H    0.998 --    33 C    0.963
    63   1 H    0.991 --    35 C    0.973
    64   1 H    0.996 --    35 C    0.976
    65   1 H    0.995 --    35 C    0.964
    66   1 H    0.997 --    37 C    0.974
    67   1 H    0.996 --    37 C    0.943
    68   1 H    0.994 --    37 C    0.976
    69   1 H    0.997 --    38 C    0.983
    70   1 H    0.994 --    38 C    0.979
    71   1 H    0.996 --    38 C    0.982
    72   1 H    0.997 --    39 C    0.982
    73   1 H    0.997 --    39 C    0.973
    74   1 H    0.995 --    39 C    0.980
 ---------------------------------------------------------------------------

Topologies differ in total number of bonds
Writing topology from bond orders to xtbtopo.mol

molecular dipole:
                 x           y           z       tot (Debye)
 q only:        0.537       1.033      -0.301
   full:        0.625       0.788      -0.282       2.656
molecular quadrupole (traceless):
                xx          xy          yy          xz          yz          zz
 q only:        2.427       3.351      13.685      -2.072      -9.406     -16.113
  q+dip:        2.156       4.648      10.614      -2.515     -10.906     -12.770
   full:        1.593       1.543      13.025      -2.123     -10.398     -14.618

           -------------------------------------------------
          |                Geometry Summary                 |
           -------------------------------------------------

      molecular mass/u    :      568.7556574
   center of mass at/Å    :        0.0829206      -0.1986391       0.2776256
  moments of inertia/u·Å² :        0.4637436E+04   0.5047032E+04   0.7579046E+04
rotational constants/cm⁻¹ :        0.3635119E-02   0.3340108E-02   0.2224242E-02

 * 77 selected distances

     #   Z          #   Z                                           value/Å
     1   6 C        2   7 N                                       1.4500360
     2   7 N        3   6 C                                       1.4367673
     3   6 C        4   6 C                                       1.4044179
     4   6 C        5   6 C                                       1.3648714
     5   6 C        6   6 C                                       1.4115615
     6   6 C        7   6 C                                       1.4101048
     7   6 C        8   6 C                                       1.3669110
     8   6 C        9   6 C                                       1.4028342
     9   6 C       10   6 C                                       1.3675571
     6   6 C       11   6 C                                       1.4209307
    10   6 C       11   6 C                                       1.4108532
     3   6 C       12   6 C                                       1.3761655
    11   6 C       12   6 C                                       1.4235113
    13   6 C       14   6 C                                       1.3809843
    14   6 C       15   6 C                                       1.4085603
    15   6 C       16   6 C                                       1.3647189
    16   6 C       17   6 C                                       1.4100243
    17   6 C       18   6 C                                       1.4099907
    18   6 C       19   6 C                                       1.3665183
    19   6 C       20   6 C                                       1.4029788
    20   6 C       21   6 C                                       1.3674699
    13   6 C       22   6 C                                       1.4242837
    17   6 C       22   6 C                                       1.4193473
    21   6 C       22   6 C                                       1.4116437
    14   6 C       23   7 N                                       1.4232092
    23   7 N       24   6 C                                       1.4604262
     2   7 N       25  15 P                                       1.6533628
    23   7 N       25  15 P                                       1.6587436
    25  15 P       26  16 S                                       2.1427362 (max)
    26  16 S       27  16 S                                       2.0474186
    28   6 C       29   6 C                                       1.3858525
    29   6 C       30   6 C                                       1.3835161
    30   6 C       31   6 C                                       1.3864105
    31   6 C       32   6 C                                       1.3856411
    28   6 C       33   6 C                                       1.3852471
    32   6 C       33   6 C                                       1.3843293
    25  15 P       34   7 N                                       1.6562600
    34   7 N       35   6 C                                       1.4596988
    34   7 N       36   6 C                                       1.4826119
    36   6 C       37   6 C                                       1.5263872
    36   6 C       38   6 C                                       1.5304553
    36   6 C       39   6 C                                       1.5288269
     1   6 C       40   1 H                                       1.0910622
     1   6 C       41   1 H                                       1.0919058
     1   6 C       42   1 H                                       1.0887251
     4   6 C       43   1 H                                       1.0795826
     5   6 C       44   1 H                                       1.0795155
     7   6 C       45   1 H                                       1.0797753
     8   6 C       46   1 H                                       1.0789480
     9   6 C       47   1 H                                       1.0791144
    10   6 C       48   1 H                                       1.0791353
    15   6 C       49   1 H                                       1.0771193 (min)
    16   6 C       50   1 H                                       1.0793652
    18   6 C       51   1 H                                       1.0798046
    19   6 C       52   1 H                                       1.0789839
    20   6 C       53   1 H                                       1.0792874
    21   6 C       54   1 H                                       1.0792265
    24   6 C       55   1 H                                       1.0928308
    24   6 C       56   1 H                                       1.0898879
    24   6 C       57   1 H                                       1.0896015
    29   6 C       58   1 H                                       1.0801644
    30   6 C       59   1 H                                       1.0787915
    31   6 C       60   1 H                                       1.0788691
    32   6 C       61   1 H                                       1.0792232
    33   6 C       62   1 H                                       1.0783475
    35   6 C       63   1 H                                       1.0894024
    35   6 C       64   1 H                                       1.0912203
    35   6 C       65   1 H                                       1.0869529
    37   6 C       66   1 H                                       1.0870788
    37   6 C       67   1 H                                       1.0884240
    37   6 C       68   1 H                                       1.0868668
    38   6 C       69   1 H                                       1.0871502
    38   6 C       70   1 H                                       1.0864185
    38   6 C       71   1 H                                       1.0853247
    39   6 C       72   1 H                                       1.0873802
    39   6 C       73   1 H                                       1.0885008
    39   6 C       74   1 H                                       1.0859312

 * 6 distinct bonds (by element types)

   Z      Z             #   av. dist./Å        max./Å        min./Å
   1 H    6 C          35     1.0839976     1.0928308     1.0771193
   6 C    6 C          31     1.4071905     1.5304553     1.3647189
   6 C    7 N           6     1.4521249     1.4826119     1.4232092
   7 N   15 P           3     1.6561221     1.6587436     1.6533628
  15 P   16 S           1     2.1427362     2.1427362     2.1427362
  16 S   16 S           1     2.0474186     2.0474186     2.0474186


optimized geometry written to: xtbopt.xyz


           -------------------------------------------------
          | TOTAL ENERGY             -106.034567734014 Eh   |
          | GRADIENT NORM               0.000049081390 Eh/α |
          | HOMO-LUMO GAP               2.342402127972 eV   |
           -------------------------------------------------

------------------------------------------------------------------------
 * finished run on 2024/12/16 at 18:52:01.729     
------------------------------------------------------------------------
 total:
 * wall-time:     0 d,  0 h,  1 min, 32.912 sec
 *  cpu-time:     0 d,  0 h, 12 min, 15.824 sec
 * ratio c/w:     7.920 speedup
 SCF:
 * wall-time:     0 d,  0 h,  0 min,  2.478 sec
 *  cpu-time:     0 d,  0 h,  0 min, 19.724 sec
 * ratio c/w:     7.958 speedup
 ANC optimizer:
 * wall-time:     0 d,  0 h,  1 min, 30.262 sec
 *  cpu-time:     0 d,  0 h, 11 min, 54.762 sec
 * ratio c/w:     7.919 speedup

