74
 energy: -106.002379375922 gnorm: 0.131838025726 xtb: 6.7.1 (edcfbbe)
C            1.92959800000000       -0.33222100000000       -1.44498700000000
N            0.77629200000000        0.04888700000000       -0.63637900000000
C           -0.48065800000000       -0.07951000000000       -1.29761700000000
C           -0.58473000000000        0.11305700000000       -2.68899100000000
C           -1.80270300000000        0.02633800000000       -3.35321400000000
C           -2.97431900000000       -0.21537500000000       -2.64580700000000
C           -4.20020200000000       -0.24212100000000       -3.33447000000000
C           -5.40086100000000       -0.43162800000000       -2.65716400000000
C           -5.38820000000000       -0.58215100000000       -1.28050400000000
C           -4.17213000000000       -0.56291500000000       -0.59090400000000
C           -2.91946400000000       -0.41203700000000       -1.24336000000000
C           -1.64521500000000       -0.40827800000000       -0.55170800000000
C           -1.53274800000000       -0.75883100000000        0.83524200000000
C           -0.97478800000000        0.16696800000000        1.76120600000000
C           -1.07037700000000       -0.10417700000000        3.14000300000000
C           -1.62402100000000       -1.28569800000000        3.62090200000000
C           -2.07678200000000       -2.26049600000000        2.73997500000000
C           -2.56582200000000       -3.47645700000000        3.24900200000000
C           -2.98663900000000       -4.49444200000000        2.39847000000000
C           -2.91211100000000       -4.30990200000000        1.02781400000000
C           -2.43349700000000       -3.10060300000000        0.51555300000000
C           -2.02441700000000       -2.02239300000000        1.34469500000000
N           -0.34908500000000        1.36133600000000        1.29247300000000
C           -0.41376200000000        2.49432300000000        2.21313000000000
P            1.06317800000000        1.28645600000000        0.42227800000000
S            2.69772600000000        0.92091600000000        1.70534300000000
S            2.24696000000000       -0.84473200000000        2.64347400000000
C            2.83735400000000       -2.08926700000000        1.51764200000000
C            4.19852000000000       -2.20921300000000        1.21691200000000
C            4.64260000000000       -3.20271100000000        0.34110000000000
C            3.72965300000000       -4.08694500000000       -0.23161600000000
C            2.37391200000000       -3.98189700000000        0.07357200000000
C            1.93057000000000       -2.98914100000000        0.94941600000000
N            1.14103100000000        2.65635000000000       -0.50876100000000
C           -0.11031300000000        3.19209200000000       -1.05499500000000
C            2.29837600000000        3.57639400000000       -0.67282500000000
C            3.57332300000000        2.81468000000000       -1.08808400000000
C            2.11395300000000        4.64840900000000       -1.78903100000000
C            2.53639200000000        4.35290700000000        0.63564000000000
H            2.15089600000000        0.40998700000000       -2.21729400000000
H            1.77332400000000       -1.30640300000000       -1.92300200000000
H            2.83162500000000       -0.42822900000000       -0.83840000000000
H            0.28447900000000        0.37090000000000       -3.28528700000000
H           -1.82410000000000        0.18967400000000       -4.42809200000000
H           -4.22883900000000       -0.10190800000000       -4.41317300000000
H           -6.34080000000000       -0.44477000000000       -3.20142300000000
H           -6.31801100000000       -0.71011700000000       -0.73309200000000
H           -4.21640500000000       -0.65765900000000        0.49279700000000
H           -0.66898400000000        0.58484100000000        3.87676100000000
H           -1.65169400000000       -1.44898800000000        4.69571500000000
H           -2.61043800000000       -3.64467900000000        4.32313300000000
H           -3.35670000000000       -5.43055200000000        2.80672700000000
H           -3.21999900000000       -5.10082500000000        0.34941100000000
H           -2.36869500000000       -3.01166500000000       -0.56763200000000
H            0.31043700000000        2.40216300000000        3.02925500000000
H           -0.19984000000000        3.43441400000000        1.69863000000000
H           -1.41951100000000        2.60929600000000        2.63466600000000
H            4.92105900000000       -1.53010500000000        1.66241100000000
H            5.70117000000000       -3.28831200000000        0.11046400000000
H            4.07446200000000       -4.86172700000000       -0.91139400000000
H            1.65749600000000       -4.67013100000000       -0.36702100000000
H            0.86933700000000       -2.91520200000000        1.17508200000000
H           -0.06916800000000        3.26801900000000       -2.14587200000000
H           -0.34796100000000        4.17009500000000       -0.62357800000000
H           -0.97565100000000        2.56173800000000       -0.83802500000000
H            3.42962800000000        2.29758600000000       -2.04285700000000
H            3.90656100000000        2.08064900000000       -0.35824300000000
H            4.41472200000000        3.50589500000000       -1.22327200000000
H            1.92852900000000        4.18430400000000       -2.76471300000000
H            3.01726300000000        5.26252500000000       -1.89530700000000
H            1.29669200000000        5.34457400000000       -1.57200700000000
H            1.65926000000000        4.95342800000000        0.90401200000000
H            2.76022900000000        3.70264800000000        1.48258700000000
H            3.38303300000000        5.04256400000000        0.53460700000000
74
 energy: -106.020742700351 gnorm: 0.056532470259 xtb: 6.7.1 (edcfbbe)
C            1.92945722955960       -0.34359262110091       -1.44502494175060
N            0.76342963778144        0.02259715280166       -0.64548460847730
C           -0.50150651095302       -0.08551483119657       -1.30208352522572
C           -0.58794205976967        0.12558902885927       -2.68759089907113
C           -1.78629663494247        0.03163960826565       -3.34989076942475
C           -2.97235350266088       -0.21687719348434       -2.64750007435755
C           -4.20347056547561       -0.24282511093006       -3.32968958304917
C           -5.38357848487544       -0.43188624900032       -2.65124043624912
C           -5.35809294592430       -0.58256340594031       -1.26546970224569
C           -4.15940447861722       -0.57342921946741       -0.57865239385567
C           -2.91969257737027       -0.42082436965451       -1.24072713513729
C           -1.64711582977315       -0.41676466788355       -0.56708071416418
C           -1.53996270951980       -0.75956338862309        0.84696566057513
C           -0.97708975200922        0.14668583472861        1.75883310691811
C           -1.04729034640968       -0.11512101595077        3.13772309620023
C           -1.60775418098603       -1.27204566785838        3.61990533514158
C           -2.07447138304929       -2.25855405953700        2.74208630328985
C           -2.56574287443151       -3.47854348773396        3.24434034740997
C           -2.98087987042497       -4.47672333605737        2.39541798339005
C           -2.90095158968496       -4.27941125753039        1.01742846671928
C           -2.43622333820105       -3.08396850447705        0.50418197794707
C           -2.02977174508715       -2.01921332655281        1.34113300010293
N           -0.37823682057444        1.36169375598783        1.28852345097006
C           -0.41895501860126        2.49541548686605        2.21155811632630
P            1.02215496661778        1.29668574441831        0.39025647274944
S            2.72260624139977        0.91608554253873        1.62667092764670
S            2.22331089423558       -0.83152777771859        2.59851856216370
C            2.83685850362971       -2.09363844996132        1.49837886794372
C            4.19393628710033       -2.20828119109098        1.21383641363317
C            4.63327512563307       -3.19711614533944        0.34644523472788
C            3.72505958782741       -4.07886295489886       -0.22294496174396
C            2.37476015889511       -3.97493701670315        0.07904634124055
C            1.92752143529235       -2.98305816834240        0.93857008780672
N            1.14646852108059        2.68351343046021       -0.52398359312109
C           -0.11692718240811        3.19535917777902       -1.05102338422288
C            2.31751794788793        3.59485399719168       -0.66550019746224
C            3.56862246751023        2.80479319029106       -1.07240480875719
C            2.09867959894717        4.63789418074382       -1.78432448469758
C            2.54317942664619        4.35301061455742        0.64573010529606
H            2.15130015154194        0.39556848283364       -2.22010670226070
H            1.76052335682030       -1.31255477890947       -1.91685504983764
H            2.81716953889031       -0.43055396691898       -0.81430128049113
H            0.29018324506627        0.36500613688073       -3.26940595966720
H           -1.81079437009812        0.18238464124859       -4.42031112011431
H           -4.22321264620466       -0.10090508478373       -4.40204779997485
H           -6.32269375223228       -0.44711215865061       -3.18889533635405
H           -6.28479016826269       -0.70590634427834       -0.72128469053447
H           -4.19191690024916       -0.67106096866321        0.49856470855898
H           -0.66232248554864        0.59110747509768        3.85921258812039
H           -1.65339942211662       -1.43080681941778        4.68841725456886
H           -2.60614426994813       -3.63840127779657        4.31349246678399
H           -3.35220113131209       -5.41081195340489        2.79658902765479
H           -3.20457976628121       -5.06897263960959        0.34301622484793
H           -2.37202094908595       -2.98365707938253       -0.57159134336213
H            0.30392508832767        2.40477091252650        3.02877733499695
H           -0.19951719709154        3.42137807419631        1.67683904439063
H           -1.42132638195956        2.58847356256226        2.63198794225976
H            4.90733787835416       -1.52736510082700        1.66017039474611
H            5.68706958319781       -3.28220906043337        0.12010224503216
H            4.07010446286869       -4.85006746714257       -0.89854594875559
H            1.66330581183366       -4.66257824334480       -0.35632644012792
H            0.87373861190497       -2.90779076764799        1.17517793831623
H           -0.06456366497590        3.27174031997347       -2.13725673905589
H           -0.35059645179883        4.17462091109335       -0.62846309152035
H           -0.95123772452698        2.52944630325901       -0.81723000996349
H            3.41405589953826        2.29957459785955       -2.02665949847060
H            3.87521026363471        2.07077045193593       -0.32979613163196
H            4.39989179884783        3.49739425385892       -1.20615422237679
H            1.92107994382572        4.17192137700829       -2.75270999332782
H            3.00748897074561        5.23232591460640       -1.87492310939864
H            1.28923717591220        5.33184832864636       -1.56812314008407
H            1.66344816020746        4.94624630855947        0.89995267348789
H            2.75906734375218        3.67862691806508        1.47447497766532
H            3.38405236812785        5.03657541254406        0.53927814069450
74
 energy: -106.026518729097 gnorm: 0.012632642848 xtb: 6.7.1 (edcfbbe)
C            1.92994188172451       -0.36849040657677       -1.44395589649853
N            0.75909607144063       -0.01220192332316       -0.64683961814489
C           -0.51175743728641       -0.09511410173395       -1.30405445312407
C           -0.58389290436075        0.12856918284624       -2.68921449852853
C           -1.77206944862530        0.03560991564702       -3.34799448364336
C           -2.96575405221311       -0.21731882316103       -2.64612164897660
C           -4.20306239094871       -0.24450801274512       -3.32009764868766
C           -5.36759221304725       -0.43477244614005       -2.63515866402045
C           -5.32926117358048       -0.58873145008584       -1.24222626106784
C           -4.14077738586582       -0.58535012816935       -0.56205575994662
C           -2.91222545677428       -0.42493736961653       -1.23788615355563
C           -1.64129372842403       -0.42112981004774       -0.57897343980846
C           -1.53659685539286       -0.75637506486839        0.85574469712324
C           -0.97528199663898        0.13484421683280        1.75327989319125
C           -1.02928738000993       -0.11510981238624        3.13582582815961
C           -1.59037152623752       -1.25862358773858        3.61817251893686
C           -2.06688606648721       -2.25178477702391        2.74161822179350
C           -2.56315888757690       -3.47497752328965        3.23592775019109
C           -2.97558907735663       -4.45740974412024        2.38324263957407
C           -2.89391679897825       -4.24751645588424        0.99937930733857
C           -2.43731496999186       -3.06143498005260        0.48971055111660
C           -2.02604401224474       -2.01129092187910        1.33878018309796
N           -0.39509584744559        1.36299542753007        1.28178781330628
C           -0.42570342901857        2.49870804871413        2.20439244405181
P            0.99180009483803        1.30040089520849        0.35860308845281
S            2.70472341096591        0.91170752031443        1.56295212533324
S            2.19795096165775       -0.81129625078866        2.55751416999052
C            2.82719003466604       -2.08807965039743        1.47557287890560
C            4.18347685158449       -2.19610261693548        1.20749110514515
C            4.62352357724396       -3.18909988576909        0.35170606560293
C            3.71928056490575       -4.07252011215684       -0.21598457731407
C            2.37028479099380       -3.97186773546089        0.08153821391666
C            1.91638656197926       -2.97717462813813        0.92837506234973
N            1.14562183517200        2.69731276294481       -0.53990794906192
C           -0.13153489770361        3.19150955858155       -1.05127070567079
C            2.32346408192265        3.60528040914797       -0.66136619281931
C            3.56242489381209        2.80163141352241       -1.05615072911712
C            2.10047481579980        4.63471292805480       -1.77597359507305
C            2.54612058908271        4.34938378414107        0.65284796668459
H            2.15769219063774        0.36941946112217       -2.21776821125313
H            1.75151645799452       -1.33412375705326       -1.91151079872503
H            2.80186651994764       -0.45032285458872       -0.79324344648084
H            0.30285682117346        0.36577087776243       -3.25305591708097
H           -1.80812684481183        0.18073732555848       -4.41596922882379
H           -4.21370300522107       -0.10001462582782       -4.38952826956222
H           -6.31017133263079       -0.45070384190004       -3.16090471184383
H           -6.25481634555780       -0.70579339912965       -0.69991730261892
H           -4.15422302926795       -0.69200351508581        0.51141910172965
H           -0.63395505068422        0.59800392660939        3.83958762838284
H           -1.64791535315384       -1.42237365944507        4.68231645104482
H           -2.59847515131448       -3.62638116226108        4.30376192840439
H           -3.34797724084888       -5.39294246628259        2.77232789703459
H           -3.19227584918444       -5.03820877575875        0.32807650078484
H           -2.37608652155246       -2.94156293002325       -0.58096655960521
H            0.29691933183908        2.40947464623077        3.02103399273950
H           -0.20205482736151        3.41098265225859        1.65269968480983
H           -1.42674504061818        2.57901552105243        2.62356497193309
H            4.88697429704636       -1.51188487623370        1.65804923843654
H            5.67589590198003       -3.27530099136372        0.13215057067604
H            4.06758152242162       -4.84333864274901       -0.88541090721193
H            1.66443200422291       -4.66378297527227       -0.34928565522193
H            0.86701304506339       -2.89319472976604        1.16722754810544
H           -0.08852253399550        3.27384024685471       -2.13575314377725
H           -0.37473438705227        4.16832393956115       -0.63242719436236
H           -0.93496613388115        2.49635905039730       -0.79893895849368
H            3.39983134505141        2.29677614862292       -2.00516984400993
H            3.83888201070014        2.06963420286119       -0.30148318450548
H            4.39905757201452        3.48266298674474       -1.18331190475202
H            1.91965913015487        4.15709642190177       -2.73365236981861
H            3.00722154658454        5.22516325348850       -1.86900091834255
H            1.28887369585057        5.31922502068547       -1.55901203651042
H            1.66778569329030        4.93820469607106        0.90654715940492
H            2.75624237298288        3.65407834144858        1.46383425450430
H            3.38715410659979        5.02771663851227        0.55448238580673
74
 energy: -106.028116167103 gnorm: 0.011322233367 xtb: 6.7.1 (edcfbbe)
C            1.93484406205306       -0.39734373908658       -1.43895323047470
N            0.76615883340846       -0.03132204636238       -0.64437490552804
C           -0.50437081933053       -0.09908467180090       -1.30719014435081
C           -0.57500584783176        0.12945002431034       -2.69341940640504
C           -1.76584051539156        0.03960989177608       -3.34794972428237
C           -2.95821801115189       -0.21546126290587       -2.64164823177913
C           -4.20030026018464       -0.24485241153641       -3.30797335044776
C           -5.35942957506728       -0.43719019167212       -2.61379431937881
C           -5.31356910656271       -0.59449698363800       -1.21964053260070
C           -4.12254851301208       -0.59226795851028       -0.54744612881091
C           -2.90110222810997       -0.42393292268605       -1.23523988932843
C           -1.63050929774444       -0.41933237755846       -0.58251760802450
C           -1.52501233615667       -0.75122972766692        0.85600783103268
C           -0.96442394420330        0.13713570522921        1.74913996991568
C           -1.01008705599954       -0.11108444808931        3.13399329855006
C           -1.57427931689335       -1.25336651245815        3.61547488188261
C           -2.05658667923290       -2.24445590902145        2.73731446622178
C           -2.55741523779718       -3.46888690973175        3.22539895462129
C           -2.97129042024092       -4.44507765910681        2.36574440810640
C           -2.89058859111934       -4.22934229412472        0.98094444663697
C           -2.43357194357705       -3.04299197195896        0.47733624525250
C           -2.01650445928212       -2.00280494075569        1.33636138173359
N           -0.39122786522673        1.36614538888340        1.27426898879493
C           -0.42782763916283        2.50583378112692        2.19104330634938
P            0.98904134613734        1.29958166580707        0.34290131976674
S            2.71186054913200        0.92690897552595        1.53090023195588
S            2.16223776033704       -0.78431020272258        2.52172820496229
C            2.80460006156866       -2.07358476881326        1.45739415861897
C            4.16366032806897       -2.17811463924296        1.20276513777353
C            4.61172571268104       -3.17846776656046        0.35802456598561
C            3.71272016564293       -4.06916899619980       -0.20764548684326
C            2.36104839416779       -3.97141593387936        0.08036450867440
C            1.89776519771861       -2.96898110563175        0.91448179149351
N            1.14150954125211        2.69800614531109       -0.54803550658496
C           -0.14295402047474        3.18525585121654       -1.05495462243786
C            2.31937323824810        3.60573415412531       -0.65728249139399
C            3.55525332627932        2.79334768934810       -1.04021596508412
C            2.09616745753302        4.63231382403003       -1.77117264286796
C            2.54013802193556        4.33883918954470        0.66386548067659
H            2.17237692370856        0.33611668067943       -2.21346876930475
H            1.74678546822200       -1.36264836680777       -1.90397426003509
H            2.80007974829518       -0.48625171251687       -0.78277832652015
H            0.31593116381067        0.36642027637277       -3.25012436515251
H           -1.81157901406040        0.18501129857443       -4.41594667041618
H           -4.21135485092151       -0.10000152526068       -4.37766421691534
H           -6.30704379895329       -0.45554554274094       -3.12939139718925
H           -6.23731391689240       -0.71458474554851       -0.67516234837176
H           -4.11940187039010       -0.70779969103700        0.52566132214019
H           -0.60420022387323        0.60358883532750        3.82961014325337
H           -1.63431403492276       -1.42300286403226        4.67886935491837
H           -2.59212770478304       -3.61945153307987        4.29372661048609
H           -3.34767833006095       -5.38238810216489        2.74521561393449
H           -3.19260684513123       -5.01750184098741        0.30855650689479
H           -2.37575296421332       -2.90633328579010       -0.59190691274596
H            0.29388285907458        2.42221328220514        3.00856101559557
H           -0.20703590105507        3.41327790708433        1.63256558187795
H           -1.43042894669635        2.58162283278800        2.60785673109766
H            4.85951602336459       -1.48606048803287        1.65303789597632
H            5.66601608437751       -3.26516728062957        0.14647326682222
H            4.06780193001559       -4.84391545593532       -0.86888899164186
H            1.66118631329470       -4.67232101374005       -0.34653624170952
H            0.84819627577550       -2.88176476133876        1.14945629993254
H           -0.11192427834161        3.27219024029414       -2.14009355067358
H           -0.39813459235467        4.15818557634801       -0.63304665952708
H           -0.93273706537465        2.47858368477553       -0.79687698607783
H            3.39440244410002        2.28529709004720       -1.98734257998785
H            3.81472959634995        2.06315387963020       -0.27834785520458
H            4.40079005560685        3.46455517323233       -1.15997766899555
H            1.91402208108541        4.14893564088890       -2.72626506452772
H            3.00196902730433        5.22366645579930       -1.86750035689318
H            1.28240945936603        5.31506857489328       -1.55394433810576
H            1.66500713316820        4.92977350849026        0.92277416673016
H            2.74746292406145        3.63390809824859        1.46686374187059
H            3.38562851463287        5.01357523944978        0.57400891608426
74
 energy: -106.029258321795 gnorm: 0.009935636822 xtb: 6.7.1 (edcfbbe)
C            1.94422181346978       -0.43848350286953       -1.43062843052209
N            0.77938913639432       -0.04873426174511       -0.64249884772160
C           -0.48943532261776       -0.10029614390864       -1.31267079891500
C           -0.56331523078071        0.13168898918454       -2.69936983183172
C           -1.76014984407343        0.04718298980149       -3.34629934667511
C           -2.94901679533104       -0.20917630249064       -2.63303269885843
C           -4.19730020418490       -0.24300583868693       -3.28881113769117
C           -5.34973278645893       -0.44041805520665       -2.58269288536566
C           -5.29506629507827       -0.60207346079564       -1.18887205326044
C           -4.09861342318868       -0.59615399849002       -0.52734351164904
C           -2.88588608853848       -0.41826270680778       -1.22946384256942
C           -1.61404341559771       -0.41355329494844       -0.58437502291361
C           -1.50506205265701       -0.74444986401073        0.85316300596388
C           -0.94527895449312        0.14333167163977        1.74442956027303
C           -0.98394171434652       -0.10668975238035        3.13063970166736
C           -1.54949143853309       -1.25028739233803        3.60984705152215
C           -2.03832128475790       -2.23694690935105        2.72919304951618
C           -2.54635860669862       -3.46190058528469        3.20953816978025
C           -2.96518537301395       -4.43011316017880        2.34152430505538
C           -2.88673317333323       -4.20896832982291        0.95705960039857
C           -2.42348019297323       -3.02228162205233        0.46134503191937
C           -1.99906841641247       -1.99344996811899        1.33116641475281
N           -0.37834331191852        1.37047072779243        1.26385156320556
C           -0.42842684998526        2.51739482497417        2.16976717752641
P            0.99301813754443        1.30047236510653        0.32359742248462
S            2.68974965835394        0.91921588444711        1.52908860307802
S            2.12267683587839       -0.78410801792405        2.51716049592696
C            2.77122223643692       -2.05967766145121        1.44071348693251
C            4.13250297815291       -2.15407377715028        1.19577935123077
C            4.59254338402448       -3.16130299687113        0.36420012295667
C            3.70194789160381       -4.06399723107276       -0.19684104454125
C            2.34659726451692       -3.97094218402040        0.07772273233053
C            1.87076507400914       -2.96170698959266        0.89798874783736
N            1.13239313748538        2.69941019326292       -0.55802551805002
C           -0.15808967366219        3.17846336135636       -1.06346321919986
C            2.31075335266349        3.60493909954752       -0.65349852687870
C            3.54650042232613        2.78957308017384       -1.02968523738205
C            2.08992156676260        4.63201908015774       -1.76502325816521
C            2.52795308197932        4.32610947005291        0.67590991316768
H            2.19849406980929        0.28497441442886       -2.20907325076402
H            1.73906105644710       -1.40385713656891       -1.89069977899465
H            2.80381520066848       -0.54288314290340       -0.77095510287801
H            0.33064807127186        0.36613887331321       -3.25237916239443
H           -1.81660851031809        0.19471417565167       -4.41418012906535
H           -4.21460233073403       -0.09933655558349       -4.35901439477813
H           -6.30381254605720       -0.46233747647106       -3.08599808497808
H           -6.21520236397302       -0.72978380887042       -0.63967263435895
H           -4.07604789651055       -0.71932456768215        0.54511119437855
H           -0.56663732778784        0.60784191534065        3.81966613813586
H           -1.60723747465153       -1.42709456647551        4.67275217705158
H           -2.58275074839305       -3.61528955102123        4.27786813536817
H           -3.34728786356274       -5.36916259110631        2.71044245704310
H           -3.19665837625000       -4.99190715729637        0.28194404056257
H           -2.36694904912051       -2.86802164933407       -0.60587181822432
H            0.29086731818562        2.44611163065075        2.99018381332714
H           -0.21501622434963        3.42144079409329        1.60450016603358
H           -1.43388536484027        2.58673442459386        2.58230315988633
H            4.81866201759076       -1.45158264678894        1.64542483891483
H            5.64956500111006       -3.24685852368654        0.16357573212060
H            4.06739101460157       -4.84559213395117       -0.84511281700222
H            1.65500069372360       -4.68278560664939       -0.34600018393318
H            0.81941711243795       -2.87232229418318        1.12455983639235
H           -0.13600556487462        3.27025829199792       -2.14898059798985
H           -0.42591271853617        4.14644595298853       -0.63653823100156
H           -0.93592384936399        2.46108141850352       -0.80414286507884
H            3.38898476777571        2.27644115818424       -1.97473855114885
H            3.79703587739533        2.06301468603967       -0.26406985203997
H            4.39930009348973        3.45303496506410       -1.14241529582626
H            1.90551556509189        4.14482354098695       -2.71856834096857
H            2.99481835097639        5.22496765087175       -1.86463540952731
H            1.27384706169956        5.31285262391093       -1.54610839593614
H            1.65630850642459        4.91987799430343        0.94114191288103
H            2.73065128839283        3.61167489979304        1.47121630991996
H            3.37933961926368        4.99649226792820        0.59737368953925
74
 energy: -106.029792280456 gnorm: 0.006439557914 xtb: 6.7.1 (edcfbbe)
C            1.95284314622914       -0.47271126610305       -1.42140878824070
N            0.79190652564714       -0.05673095309956       -0.64017082977521
C           -0.47439744177104       -0.09854706940188       -1.31664865688282
C           -0.55431618029880        0.13426819745787       -2.70285438429059
C           -1.75697658083941        0.05593811680086       -3.34299662546920
C           -2.94244705166428       -0.19962665535447       -2.62434571958702
C           -4.19523310876860       -0.23808950511423       -3.27195790212602
C           -5.34259825589064       -0.44217305694263       -2.55786746205861
C           -5.28194721100764       -0.60591480108407       -1.16539577633385