74
 energy: -106.034567734014 gnorm: 0.000049081390 xtb: 6.7.1 (edcfbbe)
C            1.97892888171927       -0.93914183050512       -1.21165522870976
N            0.95629001304300       -0.08327605439708       -0.64217516545211
C           -0.29566019578887        0.06430511776749       -1.33147942393541
C           -0.35149794153535        0.53044611618537       -2.65510477137549
C           -1.56199475874490        0.72471342175557       -3.25496406542926
C           -2.76319084193608        0.50687504863792       -2.54631744693793
C           -4.01946591681891        0.74904037821172       -3.13921202196628
C           -5.17396825461261        0.55642038260218       -2.43318993526948
C           -5.11998891142471        0.12623278143618       -1.09903543161135
C           -3.91824133036104       -0.12538940438195       -0.49678865175227
C           -2.70951295145592        0.03958802624941       -1.20549482235805
C           -1.43842262510749       -0.21579602122970       -0.61770879381709
C           -1.33128189534637       -0.79977069002976        0.73307257985595
C           -0.70096188833283       -0.12337419635137        1.75889017029297
C           -0.74885386817767       -0.62400803394051        3.07460819820358
C           -1.36880772171271       -1.80970215103586        3.34339073452119
C           -1.92790741385180       -2.58607986974059        2.30762366682616
C           -2.50044346182744       -3.85018870434539        2.55723293748225
C           -3.00849772181569       -4.59923083758902        1.53342208477421
C           -2.95364383661830       -4.11712141763124        0.21702143429431
C           -2.41454949409493       -2.89026171123604       -0.05531304338347
C           -1.90071737661564       -2.08145511494981        0.98129005936773
N           -0.04937816889945        1.11362657874785        1.49282289054978
C            0.03317189827480        2.10176843330641        2.56501940902021
P            1.13887725959572        1.23292979153156        0.34162979708625
S            3.02438730558399        1.04854564936363        1.34271517927835
S            2.57473444398387       -0.35306533422958        2.76581776677125
C            2.91171291374682       -1.88718709323928        1.91336870562363
C            4.18037372871012       -2.14014414103302        1.41627784098946
C            4.41853449847323       -3.33676580901651        0.76397991502678
C            3.40189317664653       -4.26921514401189        0.62573215714809
C            2.14119226337041       -4.00849128344044        1.13823310584890
C            1.88734163076697       -2.81070148083344        1.78416402684411
N            0.86635426136401        2.66236514945924       -0.44934587000323
C           -0.43829665644447        3.30931609853683       -0.34904323168755
C            1.96198020491959        3.44304437075636       -1.07246820253105
C            2.98596847884090        2.47528073734850       -1.65961308014146
C            1.41354846320802        4.29826254664428       -2.21707185528632
C            2.61667498000764        4.33716261414931       -0.01926427897023
H            2.12671428048509       -0.74264159321469       -2.27465274241625
H            1.68138924045771       -1.98222251824237       -1.08631178615143
H            2.92377486030490       -0.78162414303862       -0.69418399169670
H            0.56522686238751        0.72171257700102       -3.19225566420402
H           -1.61622774236099        1.06608845087219       -4.27764451867473
H           -4.04998498829444        1.09335404836104       -4.16216421128109
H           -6.13210944675457        0.74105153417087       -2.89363033995206
H           -6.03780760288377       -0.00448505498580       -0.54675899234030
H           -3.88530064919262       -0.44984769764038        0.53188748456277
H           -0.28778609551646       -0.07366149695094        3.87755334448532
H           -1.41144781097956       -2.18000445410446        4.35635029155453
H           -2.52099961066910       -4.21555871152821        3.57313650179672
H           -3.44535448215934       -5.56639875684691        1.72822553784514
H           -3.33911749587078       -4.72595612685134       -0.58646556622006
H           -2.36780544438908       -2.53629759077156       -1.07376969539942
H            0.70866085972974        1.79473246879650        3.36734257932526
H            0.40568284441498        3.04005772056603        2.15428312764267
H           -0.96126859487835        2.26455999293266        2.97952910721456
H            4.96616566354642       -1.40872195155957        1.53589169821713
H            5.40257756590413       -3.54334362787690        0.37311448490892
H            3.59575858144394       -5.20357026588843        0.12238829249995
H            1.34890219610852       -4.73423579588958        1.03677412194027
H            0.91098155770886       -2.59771567925457        2.18936925662520
H           -0.85365721241292        3.45465756267447       -1.34561173381153
H           -0.37248636597678        4.27602476380496        0.15285793795427
H           -1.12682692329067        2.66972068854799        0.19713458534088
H            2.51662285771844        1.82646567377140       -2.39479593580622
H            3.45349340585992        1.86931117163893       -0.88573461491842
H            3.77520568618184        3.03458116385234       -2.15516012059777
H            0.86212073448221        3.68715574502946       -2.92726280094537
H            2.24743755114057        4.75670005372428       -2.74125587820993
H            0.77140988469463        5.09618296006584       -1.85803081332410
H            1.89073593353754        5.02202889320566        0.41243713297391
H            3.05015463207238        3.73489380053524        0.77710335256471
H            3.40848409665820        4.92744927570081       -0.47075777058479
