86
 energy: -118.704618377808 gnorm: 0.000019098597 xtb: 6.7.1 (edcfbbe)
C            0.99804746934161       -3.36927225974655       -0.51249062832365
C            2.39794974652955       -3.09672221184647       -0.06115646771960
C            3.47328924029211       -3.64696325867741       -0.74411444096783
C            4.76996718432621       -3.44244055322135       -0.30758882289674
C            5.00605385805232       -2.70872526540564        0.83909786735254
C            3.95907866499341       -2.14907963618267        1.56259421483261
C            4.25598300195437       -1.39449470126424        2.81950881359039
C            2.66410611926396       -2.32509148518547        1.07295957335928
S            1.25867294539808       -1.63298190198096        1.94409739597548
S            1.69273877630714        0.36793441224521        2.04467238964630
P            0.43140352153443        1.28325126292595        0.57716687092513
N            0.87979366729887        2.85620194273764        0.31205861770017
C            2.10603922416296        3.44043776827463        0.90415064154443
C            3.39077252543911        2.71651476163817        0.50772074698305
C            1.98403546930669        3.59152615889397        2.41569967866153
C            0.18929116969313        3.72667847834861       -0.69503238646786
C           -0.03386577325796        5.13445633262414       -0.12034609914624
C           -1.18305598917552        3.17723495317463       -1.07754291045988
C            1.04545137727047        3.81322213975165       -1.96133521317721
N           -1.12460135094806        1.21273001670455        1.17478958737483
C           -1.47203664212317        2.21971128923254        2.17430938175685
C           -1.54847260934085       -0.12695740746332        1.46764670098102
C           -1.65548980981319       -0.57351657330322        2.79817475251881
C           -2.04177307613309       -1.85418013034166        3.06588803206075
C           -2.29852987414436       -2.76522170429855        2.02249914470692
C           -2.64236063334829       -4.10693259147708        2.28781314920091
C           -2.85838693651936       -4.98762454941037        1.26608016710772
C           -2.72663646085009       -4.56198584638580       -0.06408849748100
C           -2.40350625913332       -3.26552645336284       -0.35364094160438
C           -2.19731248334499       -2.32317501062919        0.67772828895430
C           -1.85567177446781       -0.96356423951615        0.41756406200305
C           -1.82384142016403       -0.48379177400359       -0.97570181807430
C           -0.65908368268754       -0.00204057103619       -1.53678433845764
C           -0.58458865721489        0.25301888201687       -2.92158380584279
C           -1.68086491651105        0.08298756565052       -3.71559607883379
C           -2.92178832021029       -0.29405991463553       -3.16356427399274
C           -4.08254475615780       -0.39992815169978       -3.95696174488032
C           -5.28039490775931       -0.74434375368256       -3.39687130383368
C           -5.36718535710119       -0.98565693804771       -2.01751294483152
C           -4.25679318166191       -0.90375786736676       -1.22397323188202
C           -2.99992960615915       -0.57307720770810       -1.77441155386470
N            0.48114436447635        0.22489007039040       -0.71248067820474
C            1.79794980477122        0.01550960770595       -1.30546513661754
H            0.37853328212038       -2.47737686874696       -0.46115111009779
H            0.53931684493543       -4.11712212169365        0.13489064729931
H            0.98950573527423       -3.75274243499974       -1.52935196521466
H            3.28709889233001       -4.24769889942187       -1.62125487654405
H            5.59620819205793       -3.87198296028131       -0.85221952231349
H            6.01568147412339       -2.57431701765783        1.19579076744700
H            4.43148273640379       -0.33904587587472        2.60797756032911
H            5.15383702702929       -1.79222433975976        3.28524142895175
H            3.43408971743284       -1.46467455235133        3.52904741643161
H            2.17656374494030        4.44392172444488        0.48641665318977
H            3.41398908105699        2.52514975015203       -0.56191562702761
H            4.24009928148237        3.34824705168480        0.75612086954952
H            3.50894221171477        1.77868330732439        1.03999460352343
H            1.91913190281863        2.62456808759099        2.90790333980895
H            2.86209193994637        4.10574833441721        2.79707660801701
H            1.10680680571037        4.17864184458038        2.67410478464585
H           -0.80495728495278        5.63138252443635       -0.70275618616547
H            0.85481553092376        5.75706171408088       -0.16903156347060
H           -0.37034835153961        5.09115100154504        0.91205598433680
H           -1.13937552744417        2.14088408302445       -1.39272477850362
H           -1.90027994774102        3.26921010320218       -0.26848628288849
H           -1.56187486596403        3.75264764893864       -1.91956673955665
H            0.59964571297081        4.52240706777566       -2.65346197534135
H            1.09419838880718        2.84528146124723       -2.45432615652178
H            2.05565944650254        4.14832217343737       -1.74344790910771
H           -0.92010188450828        2.10894952439078        3.11106845732023
H           -2.53898981882833        2.13872575506494        2.37732286930558
H           -1.25930533201728        3.20698311366357        1.77360521733265
H           -1.42789633387942        0.09373802201959        3.61329038873191
H           -2.13292035296598       -2.18980866057823        4.08741308919748
H           -2.72426784166079       -4.42356503403887        3.31681925256788
H           -3.12107979639488       -6.01342252179886        1.47360756917958
H           -2.87916527624209       -5.26967545566059       -0.86463377643033
H           -2.29378847087991       -2.95952529792319       -1.38235758719350
H            0.34498187814882        0.58164958703630       -3.35772115855901
H           -1.61290991010864        0.26133773834164       -4.77783386160089
H           -4.00534533004138       -0.19501446853469       -5.01433302664117
H           -6.16650323410695       -0.82327222346492       -4.00745534588359
H           -6.32292295937104       -1.23485594840440       -1.58256835644672
H           -4.33693174664740       -1.08128381574153       -0.16258235551864
H            2.12041500769048        0.84509767661334       -1.93949336188274
H            2.53795211395456       -0.11122359033457       -0.51495102615302
H            1.77485966475202       -0.89615289225919       -1.90009771777971
