      -----------------------------------------------------------      
     |                   =====================                   |     
     |                           x T B                           |     
     |                   =====================                   |     
     |                         S. Grimme                         |     
     |          Mulliken Center for Theoretical Chemistry        |     
     |                    University of Bonn                     |     
      -----------------------------------------------------------      

   * xtb version 6.7.1 (edcfbbe) compiled by 'conda@3ef47c1a292c' on 2024-11-25

   xtb is free software: you can redistribute it and/or modify it under
   the terms of the GNU Lesser General Public License as published by
   the Free Software Foundation, either version 3 of the License, or
   (at your option) any later version.
   
   xtb is distributed in the hope that it will be useful,
   but WITHOUT ANY WARRANTY; without even the implied warranty of
   MERCHANTABILITY or FITNESS FOR A PARTICULAR PURPOSE.  See the
   GNU Lesser General Public License for more details.
   
   Cite this work as:
   * C. Bannwarth, E. Caldeweyher, S. Ehlert, A. Hansen, P. Pracht,
     J. Seibert, S. Spicher, S. Grimme, WIREs Comput. Mol. Sci., 2020, 11,
     e01493. DOI: 10.1002/wcms.1493
   
   for GFN2-xTB:
   * C. Bannwarth, S. Ehlert and S. Grimme., J. Chem. Theory Comput., 2019,
     15, 1652-1671. DOI: 10.1021/acs.jctc.8b01176
   for GFN1-xTB:
   * S. Grimme, C. Bannwarth, P. Shushkov, J. Chem. Theory Comput., 2017,
     13, 1989-2009. DOI: 10.1021/acs.jctc.7b00118
   for GFN0-xTB:
   * P. Pracht, E. Caldeweyher, S. Ehlert, S. Grimme, ChemRxiv, 2019, preprint.
     DOI: 10.26434/chemrxiv.8326202.v1
   for GFN-FF:
   * S. Spicher and S. Grimme, Angew. Chem. Int. Ed., 2020, 59, 15665-15673.
     DOI: 10.1002/anie.202004239
   
   for ALPB and GBSA implicit solvation:
   * S. Ehlert, M. Stahn, S. Spicher, S. Grimme, J. Chem. Theory Comput.,
     2021, 17, 4250-4261. DOI: 10.1021/acs.jctc.1c00471
   
   for ddCOSMO and CPCM-X implicit solvation:
   * M. Stahn, S. Ehlert, S. Grimme, J. Phys. Chem. A,
     2023, XX, XXXX-XXXX. DOI: 10.1021/acs.jpca.3c04382
   
   for DFT-D4:
   * E. Caldeweyher, C. Bannwarth and S. Grimme, J. Chem. Phys., 2017,
     147, 034112. DOI: 10.1063/1.4993215
   * E. Caldeweyher, S. Ehlert, A. Hansen, H. Neugebauer, S. Spicher,
     C. Bannwarth and S. Grimme, J. Chem. Phys., 2019, 150, 154122.
     DOI: 10.1063/1.5090222
   * E. Caldeweyher, J.-M. Mewes, S. Ehlert and S. Grimme, Phys. Chem. Chem. Phys.
     2020, 22, 8499-8512. DOI: 10.1039/D0CP00502A
   
   for sTDA-xTB:
   * S. Grimme and C. Bannwarth, J. Chem. Phys., 2016, 145, 054103.
     DOI: 10.1063/1.4959605
   
   in the mass-spec context:
   * V. Asgeirsson, C. Bauer and S. Grimme, Chem. Sci., 2017, 8, 4879.
     DOI: 10.1039/c7sc00601b
   * J. Koopman and S. Grimme, ACS Omega 2019, 4, 12, 15120-15133.
     DOI: 10.1021/acsomega.9b02011
   
   for metadynamics refer to:
   * S. Grimme, J. Chem. Theory Comput., 2019, 155, 2847-2862
     DOI: 10.1021/acs.jctc.9b00143
   
   for SPH calculations refer to:
   * S. Spicher and S. Grimme, J. Chem. Theory Comput., 2021, 17, 1701-1714
     DOI: 10.1021/acs.jctc.0c01306
   
   for ONIOM refer to:
   * C. Plett, A. Katbashev, S. Ehlert, S. Grimme, M. Bursch,
     Phys. Chem. Chem. Phys., 2023, 25, 17860-17868. DOI: 10.1039/D3CP02178E
   
   for DIPRO refer to:
   * J. Kohn, N. Gildemeister, S. Grimme, D. Fazzi, A. Hansen,
     J. Chem. Phys., 2023, just accepted.
   
   for PTB refer to:
   * S. Grimme, M. Mueller, A. Hansen, J. Chem. Phys., 2023, 158, 124111.
     DOI: 10.1063/5.0137838
   
   with help from (in alphabetical order)
   P. Atkinson, C. Bannwarth, F. Bohle, G. Brandenburg, E. Caldeweyher
   M. Checinski, S. Dohm, S. Ehlert, S. Ehrlich, I. Gerasimov, C. Hölzer
   A. Katbashev, J. Kohn, J. Koopman, C. Lavigne, S. Lehtola, F. März, M. Müller,
   F. Musil, H. Neugebauer, J. Pisarek, C. Plett, P. Pracht, F. Pultar,
   J. Seibert, P. Shushkov, S. Spicher, M. Stahn, M. Steiner, T. Strunk,
   J. Stückrath, T. Rose, and J. Unsleber
   
 * started run on 2024/12/16 at 22:00:30.994     
   ID    Z sym.   atoms
    1    6 C      1-3, 5-7, 11-16, 18-35, 37
    2    7 N      4, 17, 36
    3   15 P      8
    4   34 Se     9
    5   16 S      10
    6    1 H      38-76

           -------------------------------------------------
          |                Calculation Setup                |
           -------------------------------------------------

          program call               : xtb --gfn2 --opt extreme -P 8 --charge 1 molecule.xyz
          hostname                   : node05
          coordinate file            : molecule.xyz
          omp threads                :                     8


           -------------------------------------------------
          |                 G F N 2 - x T B                 |
           -------------------------------------------------

        Reference                      10.1021/acs.jctc.8b01176
      * Hamiltonian:
        H0-scaling (s, p, d)           1.850000    2.230000    2.230000
        zeta-weighting                 0.500000
      * Dispersion:
        s8                             2.700000
        a1                             0.520000
        a2                             5.000000
        s9                             5.000000
      * Repulsion:
        kExp                           1.500000    1.000000
        rExp                           1.000000
      * Coulomb:
        alpha                          2.000000
        third order                    shell-resolved
        anisotropic                    true
        a3                             3.000000
        a5                             4.000000
        cn-shift                       1.200000
        cn-exp                         4.000000
        max-rad                        5.000000


          ...................................................
          :                      SETUP                      :
          :.................................................:
          :  # basis functions                 205          :
          :  # atomic orbitals                 202          :
          :  # shells                          116          :
          :  # electrons                       194          :
          :  max. iterations                   250          :
          :  Hamiltonian                  GFN2-xTB          :
          :  restarted?                      false          :
          :  GBSA solvation                  false          :
          :  PC potential                    false          :
          :  electronic temp.          300.0000000     K    :
          :  accuracy                    1.0000000          :
          :  -> integral cutoff          0.2500000E+02      :
          :  -> integral neglect         0.1000000E-07      :
          :  -> SCF convergence          0.1000000E-05 Eh   :
          :  -> wf. convergence          0.1000000E-03 e    :
          :  Broyden damping             0.4000000          :
          :  net charge                          1          :
          :  unpaired electrons                  0          :
          ...................................................

 iter      E             dE          RMSdq      gap      omega  full diag
   1   -103.3253486 -0.103325E+03  0.495E+00    0.69       0.0  T
   2   -103.3821865 -0.568378E-01  0.368E+00    0.36       1.0  T
   3   -103.2938122  0.883743E-01  0.237E+00    0.46       1.0  T
   4   -103.5834335 -0.289621E+00  0.161E+00    0.37       1.0  T
   5   -103.6992207 -0.115787E+00  0.108E+00    0.38       1.0  T
   6   -103.7779077 -0.786870E-01  0.469E-01    0.24       1.0  T
   7   -103.7805885 -0.268072E-02  0.399E-01    0.29       1.0  T
   8   -103.7879678 -0.737930E-02  0.131E-01    0.25       1.0  T
   9   -103.7884175 -0.449708E-03  0.841E-02    0.25       1.0  T
  10   -103.7888128 -0.395351E-03  0.498E-02    0.26       1.0  T
  11   -103.7888516 -0.387650E-04  0.372E-02    0.25       1.0  T
  12   -103.7888922 -0.406058E-04  0.193E-02    0.26       1.0  T
  13   -103.7888987 -0.647200E-05  0.114E-02    0.26       1.0  T
  14   -103.7888999 -0.124861E-05  0.718E-03    0.26       1.6  T
  15   -103.7889022 -0.233212E-05  0.281E-03    0.26       4.1  T
  16   -103.7889022  0.294010E-08  0.200E-03    0.26       5.7  T
  17   -103.7889024 -0.216676E-06  0.762E-04    0.26      15.0  T
  18   -103.7889025 -0.210695E-07  0.378E-04    0.26      30.4  T

   *** convergence criteria satisfied after 18 iterations ***

         #    Occupation            Energy/Eh            Energy/eV
      -------------------------------------------------------------
         1        2.0000           -0.9397888             -25.5730
       ...           ...                  ...                  ...
        91        2.0000           -0.4749360             -12.9237
        92        2.0000           -0.4718752             -12.8404
        93        2.0000           -0.4490322             -12.2188
        94        2.0000           -0.4343465             -11.8192
        95        2.0000           -0.4286034             -11.6629
        96        2.0000           -0.4203691             -11.4388
        97        1.9860           -0.3739462             -10.1756 (HOMO)
        98        0.0140           -0.3645281              -9.9193 (LUMO)
        99        0.0000           -0.3590776              -9.7710
       100                         -0.3386505              -9.2151
       101                         -0.3348654              -9.1122
       102                         -0.3293238              -8.9614
       ...                                ...                  ...
       202                          7.5864091             206.4367
      -------------------------------------------------------------
                  HL-Gap            0.0094180 Eh            0.2563 eV
             Fermi-level           -0.3692387 Eh          -10.0475 eV

 SCC (total)                   0 d,  0 h,  0 min,  2.451 sec
 SCC setup                      ...        0 min,  0.000 sec (  0.012%)
 Dispersion                     ...        0 min,  0.006 sec (  0.227%)
 classical contributions        ...        0 min,  0.000 sec (  0.004%)
 integral evaluation            ...        0 min,  0.030 sec (  1.215%)
 iterations                     ...        0 min,  2.300 sec ( 93.844%)
 molecular gradient             ...        0 min,  0.110 sec (  4.503%)
 printout                       ...        0 min,  0.005 sec (  0.193%)

         :::::::::::::::::::::::::::::::::::::::::::::::::::::
         ::                     SUMMARY                     ::
         :::::::::::::::::::::::::::::::::::::::::::::::::::::
         :: total energy            -100.867940400770 Eh    ::
         :: gradient norm              3.889819585675 Eh/a0 ::
         :: HOMO-LUMO gap              0.256278082558 eV    ::
         ::.................................................::
         :: SCC energy              -103.783821116601 Eh    ::
         :: -> isotropic ES            0.130467966851 Eh    ::
         :: -> anisotropic ES          0.012894745655 Eh    ::
         :: -> anisotropic XC          0.049994566188 Eh    ::
         :: -> dispersion             -0.122430452495 Eh    ::
         :: repulsion energy           2.915880715831 Eh    ::
         :: add. restraining           0.000000000000 Eh    ::
         :: total charge               0.999999999959 e     ::
         :::::::::::::::::::::::::::::::::::::::::::::::::::::

      ----------------------------------------------------------- 
     |                   =====================                   |
     |                        A N C O P T                        |
     |                   =====================                   |
     |               Approximate Normal Coordinate               |
     |                Rational Function Optimizer                |
      ----------------------------------------------------------- 
      ----------------------------------------------------------- 
     |                   =====================                   |
     |                        A N C O P T                        |
     |                   =====================                   |
     |               Approximate Normal Coordinate               |
     |                Rational Function Optimizer                |
      ----------------------------------------------------------- 

          ...................................................
          :                      SETUP                      :
          :.................................................:
          :   optimization level           extreme          :
          :   max. optcycles                  1520          :
          :   ANC micro-cycles                  20          :
          :   degrees of freedom               222          :
          :.................................................:
          :   RF solver                   davidson          :
          :   write xtbopt.log                true          :
          :   linear?                        false          :
          :   energy convergence         0.5000000E-07 Eh   :
          :   grad. convergence          0.5000000E-04 Eh/α :
          :   maxmium RF displ.          1.0000000          :
          :   Hlow (freq-cutoff)         0.1000000E-01      :
          :   Hmax (freq-cutoff)         5.0000000          :
          :   S6 in model hess.         20.0000000          :
          ...................................................

generating ANC from exact Hessian ...
Using Lindh-Hessian (1995)
 Shifting diagonal of input Hessian by    1.0079257665506644E-002
 Lowest  eigenvalues of input Hessian
    0.010000    0.000000    0.000000    0.000000    0.000000    0.000000
    0.000000    0.010172    0.010248    0.010481    0.010703    0.010958
    0.011234    0.011539    0.012249    0.012344    0.012561    0.013258
 Highest eigenvalues
    2.826832    2.863544    3.064330    5.225508    5.422806    5.998201


........................................................................
.............................. CYCLE    1 ..............................
........................................................................

 iter      E             dE          RMSdq      gap      omega  full diag
   1   -103.7889025 -0.103789E+03  0.180E-04    0.26       0.0  T
   2   -103.7889025  0.114163E-07  0.366E-04    0.26      31.3  T
   3   -103.7889025 -0.118699E-07  0.132E-04    0.26      86.9  T
     SCC iter.                  ...        0 min,  0.358 sec
     gradient                   ...        0 min,  0.157 sec
 * total energy  :  -100.8679404 Eh     change       -0.2443400E-08 Eh
   gradient norm :     3.8898099 Eh/α   predicted     0.0000000E+00 (-100.00%)
   displ. norm   :     0.7048099 α      lambda       -0.2676627E+01
   maximum displ.:     0.5479822 α      in ANC's #217, #222, #221, ...

........................................................................
.............................. CYCLE    2 ..............................
........................................................................

 iter      E             dE          RMSdq      gap      omega  full diag
   1   -103.7640603 -0.103764E+03  0.230E+00    0.30       0.0  T
   2   -102.6740032  0.109006E+01  0.319E+00    0.69       1.0  T
   3   -103.9864763 -0.131247E+01  0.145E+00    0.34       1.0  T
   4   -104.0147537 -0.282774E-01  0.110E+00    0.34       1.0  T
   5   -104.0197446 -0.499093E-02  0.966E-01    0.29       1.0  T
   6   -103.9686361  0.511085E-01  0.800E-01    0.07       1.0  T
   7   -104.0628653 -0.942292E-01  0.384E-01    0.33       1.0  T
   8   -104.0665007 -0.363541E-02  0.267E-01    0.30       1.0  T
   9   -104.0686261 -0.212545E-02  0.146E-01    0.25       1.0  T
  10   -104.0704977 -0.187160E-02  0.860E-02    0.18       1.0  T
  11   -104.0705524 -0.546542E-04  0.564E-02    0.19       1.0  T
  12   -104.0704602  0.922465E-04  0.496E-02    0.17       1.0  T
  13   -104.0706449 -0.184758E-03  0.223E-02    0.17       1.0  T
  14   -104.0706445  0.381761E-06  0.200E-02    0.18       1.0  T
  15   -104.0706533 -0.876735E-05  0.939E-03    0.18       1.2  T
  16   -104.0706602 -0.688835E-05  0.539E-03    0.18       2.1  T
  17   -104.0706620 -0.185278E-05  0.208E-03    0.18       5.5  T
  18   -104.0706624 -0.344096E-06  0.649E-04    0.18      17.7  T
  19   -104.0706624 -0.253364E-08  0.372E-04    0.18      30.9  T
     SCC iter.                  ...        0 min,  2.762 sec
     gradient                   ...        0 min,  0.148 sec
 * total energy  :  -102.0577819 Eh     change       -0.1189842E+01 Eh
   gradient norm :     1.0193834 Eh/α   predicted    -0.2003131E+01 (  68.35%)
   displ. norm   :     0.6508053 α      lambda       -0.5747337E+00
   maximum displ.:     0.1689172 α      in ANC's #142, #155, #146, ...

........................................................................
.............................. CYCLE    3 ..............................
........................................................................

 iter      E             dE          RMSdq      gap      omega  full diag
   1   -104.2509792 -0.104251E+03  0.737E-01    0.22       0.0  T
   2   -104.2199902  0.309890E-01  0.838E-01    0.33       1.0  T
   3   -104.2338640 -0.138738E-01  0.707E-01    0.42       1.0  T
   4   -104.2327403  0.112367E-02  0.658E-01    0.23       1.0  T
   5   -104.2679024 -0.351621E-01  0.258E-01    0.31       1.0  T
   6   -104.2717601 -0.385761E-02  0.135E-01    0.27       1.0  T
   7   -104.2724514 -0.691316E-03  0.813E-02    0.26       1.0  T
   8   -104.2723924  0.589302E-04  0.691E-02    0.25       1.0  T
   9   -104.2726938 -0.301373E-03  0.296E-02    0.26       1.0  T
  10   -104.2726994 -0.559286E-05  0.188E-02    0.26       1.0  T
  11   -104.2727110 -0.115495E-04  0.559E-03    0.26       2.1  T
  12   -104.2727089  0.201834E-05  0.590E-03    0.26       1.9  T
  13   -104.2727111 -0.219769E-05  0.270E-03    0.26       4.2  T
  14   -104.2727116 -0.454202E-06  0.922E-04    0.26      12.4  T
  15   -104.2727116 -0.303904E-07  0.664E-04    0.26      17.3  T
     SCC iter.                  ...        0 min,  2.014 sec
     gradient                   ...        0 min,  0.115 sec
 * total energy  :  -102.4690204 Eh     change       -0.4112385E+00 Eh
   gradient norm :     0.5742788 Eh/α   predicted    -0.4091035E+00 (  -0.52%)
   displ. norm   :     0.6637673 α      lambda       -0.3235121E+00
   maximum displ.:     0.1838522 α      in ANC's #148, #119, #192, ...

........................................................................
.............................. CYCLE    4 ..............................
........................................................................

 iter      E             dE          RMSdq      gap      omega  full diag
   1   -104.3684824 -0.104368E+03  0.963E-01    0.13       0.0  T
   2   -104.1944379  0.174045E+00  0.150E+00    0.76       1.0  T
   3   -104.4133976 -0.218960E+00  0.405E-01    0.13       1.0  T
   4   -104.3885603  0.248372E-01  0.613E-01    0.18       1.0  T
   5   -104.4128821 -0.243218E-01  0.338E-01    0.11       1.0  T
   6   -104.4207678 -0.788567E-02  0.121E-01    0.13       1.0  T
   7   -104.4213850 -0.617208E-03  0.778E-02    0.12       1.0  T
   8   -104.4218030 -0.418041E-03  0.164E-02    0.12       1.0  T
   9   -104.4217685  0.345303E-04  0.250E-02    0.12       1.0  T
  10   -104.4218141 -0.456602E-04  0.447E-03    0.12       2.6  T
  11   -104.4218154 -0.122527E-05  0.218E-03    0.12       5.3  T
  12   -104.4218154  0.107394E-07  0.187E-03    0.12       6.1  T
  13   -104.4218153  0.802431E-07  0.206E-03    0.12       5.6  T
  14   -104.4218154 -0.902444E-07  0.170E-03    0.12       6.8  T
  15   -104.4218156 -0.195264E-06  0.607E-04    0.12      18.9  T
  16   -104.4218156 -0.122996E-07  0.373E-04    0.12      30.7  T
     SCC iter.                  ...        0 min,  1.889 sec
     gradient                   ...        0 min,  0.166 sec
 * total energy  :  -102.7213892 Eh     change       -0.2523688E+00 Eh
   gradient norm :     0.3502841 Eh/α   predicted    -0.2330239E+00 (  -7.67%)
   displ. norm   :     0.6888606 α      lambda       -0.1954942E+00
   maximum displ.:     0.1772994 α      in ANC's #148, #119, #74, ...

........................................................................
.............................. CYCLE    5 ..............................
........................................................................

 iter      E             dE          RMSdq      gap      omega  full diag
   1   -104.3775804 -0.104378E+03  0.137E+00    0.19       0.0  T
   2   -104.0019629  0.375618E+00  0.212E+00    1.16       1.0  T
   3   -104.4540267 -0.452064E+00  0.854E-01    0.12       1.0  T
   4   -104.4559970 -0.197035E-02  0.770E-01    0.08       1.0  T
   5   -104.4905388 -0.345418E-01  0.449E-01    0.07       1.0  T
   6   -104.4719819  0.185569E-01  0.579E-01    0.08       1.0  T
   7   -104.5012188 -0.292369E-01  0.102E-01    0.02       1.0  T
   8   -104.5017716 -0.552800E-03  0.367E-02    0.01       1.0  T
   9   -104.5012626  0.508996E-03  0.849E-02    0.01       1.0  T
  10   -104.5017630 -0.500387E-03  0.354E-02    0.01       1.0  T
  11   -104.5018758 -0.112811E-03  0.552E-03    0.01       2.1  T
  12   -104.5018721  0.371647E-05  0.789E-03    0.01       1.5  T
  13   -104.5018749 -0.283148E-05  0.483E-03    0.01       2.4  T
  14   -104.5018748  0.102540E-06  0.460E-03    0.01       2.5  T
  15   -104.5018765 -0.169021E-05  0.127E-03    0.01       9.0  T
  16   -104.5018765  0.727893E-08  0.121E-03    0.01       9.5  T
  17   -104.5018766 -0.119241E-06  0.173E-04    0.01      66.4  T
  18   -104.5018766 -0.135621E-08  0.660E-05    0.01     173.8  T
     SCC iter.                  ...        0 min,  2.360 sec
     gradient                   ...        0 min,  0.116 sec
 * total energy  :  -102.8811051 Eh     change       -0.1597159E+00 Eh
   gradient norm :     0.2929672 Eh/α   predicted    -0.1441310E+00 (  -9.76%)
   displ. norm   :     0.7368622 α      lambda       -0.1486000E+00
   maximum displ.:     0.1816153 α      in ANC's #148, #119, #74, ...

........................................................................
.............................. CYCLE    6 ..............................
........................................................................

 iter      E             dE          RMSdq      gap      omega  full diag
   1   -104.5083703 -0.104508E+03  0.963E-01    0.32       0.0  T
   2   -104.1758788  0.332492E+00  0.182E+00    0.87       1.0  T
   3   -104.5343787 -0.358500E+00  0.599E-01    0.25       1.0  T
   4   -104.5518204 -0.174417E-01  0.437E-01    0.16       1.0  T
   5   -104.5589000 -0.707964E-02  0.225E-01    0.07       1.0  T
   6   -104.5560944  0.280563E-02  0.324E-01    0.14       1.0  T
   7   -104.5629286 -0.683422E-02  0.119E-01    0.12       1.0  T
   8   -104.5634253 -0.496657E-03  0.784E-02    0.10       1.0  T
   9   -104.5638917 -0.466444E-03  0.158E-02    0.10       1.0  T
  10   -104.5639014 -0.964027E-05  0.129E-02    0.10       1.0  T
  11   -104.5639133 -0.119373E-04  0.420E-03    0.10       2.7  T
  12   -104.5639133 -0.119685E-07  0.309E-03    0.10       3.7  T
  13   -104.5639135 -0.181160E-06  0.183E-03    0.10       6.3  T
  14   -104.5639135 -0.388257E-07  0.108E-03    0.10      10.6  T
  15   -104.5639135  0.472076E-07  0.119E-03    0.10       9.6  T
  16   -104.5639136 -0.103193E-06  0.530E-04    0.10      21.6  T
  17   -104.5639136 -0.233131E-07  0.231E-04    0.10      49.8  T
     SCC iter.                  ...        0 min,  2.100 sec
     gradient                   ...        0 min,  0.112 sec
 * total energy  :  -103.0016905 Eh     change       -0.1205854E+00 Eh
   gradient norm :     0.2690167 Eh/α   predicted    -0.1146426E+00 (  -4.93%)
   displ. norm   :     0.7076055 α      lambda       -0.1033729E+00
   maximum displ.:     0.1845825 α      in ANC's #41, #74, #34, ...

........................................................................
.............................. CYCLE    7 ..............................
........................................................................

 iter      E             dE          RMSdq      gap      omega  full diag
   1   -104.5771851 -0.104577E+03  0.644E-01    0.33       0.0  T
   2   -104.2386210  0.338564E+00  0.176E+00    0.55       1.0  T
   3   -104.5877691 -0.349148E+00  0.412E-01    0.33       1.0  T
   4   -104.5963961 -0.862705E-02  0.257E-01    0.20       1.0  T
   5   -104.6005523 -0.415616E-02  0.128E-01    0.17       1.0  T
   6   -104.6007628 -0.210569E-03  0.914E-02    0.15       1.0  T
   7   -104.6007358  0.270432E-04  0.990E-02    0.15       1.0  T
   8   -104.6014341 -0.698294E-03  0.181E-02    0.14       1.0  T
   9   -104.6014492 -0.151081E-04  0.107E-02    0.14       1.1  T
  10   -104.6014566 -0.734814E-05  0.532E-03    0.14       2.2  T
  11   -104.6014567 -0.182777E-06  0.374E-03    0.14       3.1  T
  12   -104.6014568 -0.161192E-07  0.293E-03    0.14       3.9  T
  13   -104.6014570 -0.227221E-06  0.199E-03    0.14       5.8  T
  14   -104.6014572 -0.247639E-06  0.801E-04    0.14      14.3  T
  15   -104.6014573 -0.330442E-07  0.412E-04    0.14      27.9  T
     SCC iter.                  ...        0 min,  1.460 sec
     gradient                   ...        0 min,  0.112 sec
 * total energy  :  -103.0857682 Eh     change       -0.8407773E-01 Eh
   gradient norm :     0.2487757 Eh/α   predicted    -0.7756616E-01 (  -7.74%)
   displ. norm   :     0.6760406 α      lambda       -0.8205421E-01
   maximum displ.:     0.2172592 α      in ANC's #41, #74, #42, ...

........................................................................
.............................. CYCLE    8 ..............................
........................................................................

 iter      E             dE          RMSdq      gap      omega  full diag
   1   -104.6228727 -0.104623E+03  0.513E-01    0.37       0.0  T
   2   -104.2424646  0.380408E+00  0.184E+00    0.39       1.0  T
   3   -104.6295435 -0.387079E+00  0.325E-01    0.36       1.0  T
   4   -104.6328060 -0.326255E-02  0.250E-01    0.23       1.0  T
   5   -104.6353237 -0.251770E-02  0.161E-01    0.23       1.0  T
   6   -104.6370251 -0.170137E-02  0.892E-02    0.20       1.0  T
   7   -104.6374766 -0.451484E-03  0.487E-02    0.18       1.0  T
   8   -104.6376234 -0.146859E-03  0.180E-02    0.17       1.0  T
   9   -104.6376386 -0.151647E-04  0.971E-03    0.17       1.2  T
  10   -104.6376438 -0.524081E-05  0.454E-03    0.17       2.5  T
  11   -104.6376444 -0.537288E-06  0.309E-03    0.17       3.7  T
  12   -104.6376443  0.109526E-06  0.248E-03    0.17       4.6  T
  13   -104.6376446 -0.339732E-06  0.115E-03    0.17      10.0  T
  14   -104.6376446 -0.320511E-07  0.536E-04    0.17      21.4  T
  15   -104.6376446  0.131458E-08  0.397E-04    0.17      28.9  T
     SCC iter.                  ...        0 min,  1.763 sec
     gradient                   ...        0 min,  0.169 sec
 * total energy  :  -103.1558867 Eh     change       -0.7011846E-01 Eh
   gradient norm :     0.2276859 Eh/α   predicted    -0.5977781E-01 ( -14.75%)
   displ. norm   :     0.6795574 α      lambda       -0.8324815E-01
   maximum displ.:     0.2205861 α      in ANC's #41, #221, #42, ...

........................................................................
.............................. CYCLE    9 ..............................
........................................................................

 iter      E             dE          RMSdq      gap      omega  full diag
   1   -104.6788814 -0.104679E+03  0.466E-01    0.44       0.0  T
   2   -104.3511322  0.327749E+00  0.170E+00    0.18       1.0  T
   3   -104.6825729 -0.331441E+00  0.297E-01    0.44       1.0  T
   4   -104.6849818 -0.240890E-02  0.220E-01    0.30       1.0  T
   5   -104.6862508 -0.126898E-02  0.142E-01    0.32       1.0  T
   6   -104.6872895 -0.103869E-02  0.104E-01    0.29       1.0  T
   7   -104.6876423 -0.352741E-03  0.774E-02    0.28       1.0  T
   8   -104.6879163 -0.274078E-03  0.546E-02    0.26       1.0  T
   9   -104.6880992 -0.182881E-03  0.298E-02    0.24       1.0  T
  10   -104.6881757 -0.764895E-04  0.104E-02    0.23       1.1  T
  11   -104.6881836 -0.793849E-05  0.338E-03    0.22       3.4  T
  12   -104.6881839 -0.266329E-06  0.222E-03    0.22       5.2  T
  13   -104.6881842 -0.331359E-06  0.129E-03    0.22       8.9  T
  14   -104.6881843 -0.100101E-06  0.683E-04    0.23      16.8  T
  15   -104.6881844 -0.237963E-07  0.383E-04    0.23      29.9  T
     SCC iter.                  ...        0 min,  1.897 sec
     gradient                   ...        0 min,  0.139 sec
 * total energy  :  -103.2250266 Eh     change       -0.6913991E-01 Eh
   gradient norm :     0.1820158 Eh/α   predicted    -0.6084607E-01 ( -12.00%)
   displ. norm   :     0.6433767 α      lambda       -0.7104360E-01
   maximum displ.:     0.2032808 α      in ANC's #41, #221, #42, ...

........................................................................
.............................. CYCLE   10 ..............................
........................................................................

 iter      E             dE          RMSdq      gap      omega  full diag
   1   -104.7475015 -0.104748E+03  0.391E-01    0.24       0.0  T
   2   -104.7473913  0.110144E-03  0.287E-01    0.25       1.0  T
   3   -104.7491992 -0.180787E-02  0.182E-01    0.26       1.0  T
   4   -104.7502006 -0.100139E-02  0.654E-02    0.26       1.0  T
   5   -104.7504624 -0.261817E-03  0.297E-02    0.24       1.0  T
   6   -104.7505224 -0.599905E-04  0.172E-02    0.26       1.0  T
   7   -104.7505405 -0.181319E-04  0.845E-03    0.25       1.4  T
   8   -104.7505435 -0.300153E-05  0.429E-03    0.25       2.7  T
   9   -104.7505436 -0.123967E-06  0.320E-03    0.25       3.6  T
  10   -104.7505439 -0.234941E-06  0.170E-03    0.25       6.8  T
  11   -104.7505439 -0.254713E-07  0.105E-03    0.25      10.9  T
  12   -104.7505439 -0.119294E-07  0.683E-04    0.25      16.8  T
  13   -104.7505439 -0.124782E-07  0.336E-04    0.25      34.2  T
     SCC iter.                  ...        0 min,  1.690 sec
     gradient                   ...        0 min,  0.111 sec
 * total energy  :  -103.2790499 Eh     change       -0.5402331E-01 Eh
   gradient norm :     0.1332174 Eh/α   predicted    -0.5022571E-01 (  -7.03%)
   displ. norm   :     0.6099052 α      lambda       -0.4365142E-01
   maximum displ.:     0.1762861 α      in ANC's #41, #55, #42, ...

........................................................................
.............................. CYCLE   11 ..............................
........................................................................

 iter      E             dE          RMSdq      gap      omega  full diag
   1   -104.8086909 -0.104809E+03  0.334E-01    0.21       0.0  T
   2   -104.8076884  0.100247E-02  0.243E-01    0.44       1.0  T
   3   -104.8078939 -0.205481E-03  0.203E-01    0.21       1.0  T
   4   -104.8097696 -0.187575E-02  0.997E-02    0.34       1.0  T
   5   -104.8107667 -0.997039E-03  0.241E-02    0.30       1.0  T
   6   -104.8108036 -0.369124E-04  0.132E-02    0.29       1.0  T
   7   -104.8108093 -0.571668E-05  0.597E-03    0.28       1.9  T
   8   -104.8108090  0.269731E-06  0.358E-03    0.28       3.2  T
   9   -104.8108096 -0.582332E-06  0.167E-03    0.28       6.9  T
  10   -104.8108097 -0.380094E-07  0.105E-03    0.28      11.0  T
  11   -104.8108097 -0.160487E-07  0.598E-04    0.28      19.2  T
  12   -104.8108097 -0.192574E-07  0.316E-04    0.28      36.3  T
     SCC iter.                  ...        0 min,  1.371 sec
     gradient                   ...        0 min,  0.111 sec
 * total energy  :  -103.3138027 Eh     change       -0.3475281E-01 Eh
   gradient norm :     0.1265485 Eh/α   predicted    -0.2994456E-01 ( -13.84%)
   displ. norm   :     0.6550589 α      lambda       -0.3857712E-01
   maximum displ.:     0.1784486 α      in ANC's #55, #41, #12, ...

........................................................................
.............................. CYCLE   12 ..............................
........................................................................

 iter      E             dE          RMSdq      gap      omega  full diag
   1   -104.8634296 -0.104863E+03  0.369E-01    0.35       0.0  T
   2   -104.8601244  0.330522E-02  0.316E-01    0.66       1.0  T
   3   -104.8660954 -0.597101E-02  0.191E-01    0.42       1.0  T
   4   -104.8671563 -0.106088E-02  0.882E-02    0.48       1.0  T
   5   -104.8677414 -0.585106E-03  0.227E-02    0.47       1.0  T
   6   -104.8677659 -0.245026E-04  0.132E-02    0.47       1.0  T
   7   -104.8677694 -0.358780E-05  0.717E-03    0.47       1.6  T
   8   -104.8677706 -0.111096E-05  0.392E-03    0.47       2.9  T
   9   -104.8677712 -0.595754E-06  0.245E-03    0.47       4.7  T
  10   -104.8677713 -0.124409E-06  0.151E-03    0.47       7.6  T
  11   -104.8677713 -0.471902E-07  0.748E-04    0.47      15.3  T
  12   -104.8677713 -0.155478E-07  0.404E-04    0.47      28.4  T
     SCC iter.                  ...        0 min,  1.251 sec
     gradient                   ...        0 min,  0.117 sec
 * total energy  :  -103.3461390 Eh     change       -0.3233632E-01 Eh
   gradient norm :     0.1045668 Eh/α   predicted    -0.2756537E-01 ( -14.75%)
   displ. norm   :     0.7026057 α      lambda       -0.3487185E-01
   maximum displ.:     0.2002616 α      in ANC's #55, #12, #74, ...

........................................................................
.............................. CYCLE   13 ..............................
........................................................................

 iter      E             dE          RMSdq      gap      omega  full diag
   1   -104.8966187 -0.104897E+03  0.521E-01    0.61       0.0  T
   2   -104.8775570  0.190617E-01  0.600E-01    0.74       1.0  T
   3   -104.9107896 -0.332327E-01  0.185E-01    0.59       1.0  T
   4   -104.9112856 -0.495998E-03  0.922E-02    0.61       1.0  T
   5   -104.9117044 -0.418819E-03  0.308E-02    0.61       1.0  T
   6   -104.9117452 -0.407666E-04  0.173E-02    0.60       1.0  T
   7   -104.9117492 -0.402349E-05  0.972E-03    0.60       1.2  T
   8   -104.9117515 -0.225245E-05  0.537E-03    0.60       2.1  T
   9   -104.9117523 -0.815091E-06  0.341E-03    0.60       3.4  T
  10   -104.9117524 -0.882068E-07  0.200E-03    0.61       5.7  T
  11   -104.9117525 -0.137105E-06  0.997E-04    0.60      11.5  T
  12   -104.9117525 -0.140982E-07  0.588E-04    0.60      19.5  T
     SCC iter.                  ...        0 min,  1.332 sec
     gradient                   ...        0 min,  0.113 sec
 * total energy  :  -103.3748944 Eh     change       -0.2875537E-01 Eh
   gradient norm :     0.0818629 Eh/α   predicted    -0.2604326E-01 (  -9.43%)
   displ. norm   :     0.7217198 α      lambda       -0.2799279E-01
   maximum displ.:     0.2070948 α      in ANC's #55, #12, #74, ...

........................................................................
.............................. CYCLE   14 ..............................
........................................................................

 iter      E             dE          RMSdq      gap      omega  full diag
   1   -104.9149412 -0.104915E+03  0.621E-01    0.79       0.0  T
   2   -104.8790245  0.359166E-01  0.780E-01    0.74       1.0  T
   3   -104.9371067 -0.580822E-01  0.204E-01    0.70       1.0  T
   4   -104.9381771 -0.107039E-02  0.937E-02    0.68       1.0  T
   5   -104.9386128 -0.435670E-03  0.358E-02    0.70       1.0  T
   6   -104.9386466 -0.338758E-04  0.206E-02    0.69       1.0  T
   7   -104.9386558 -0.918946E-05  0.915E-03    0.69       1.3  T
   8   -104.9386558 -0.155026E-07  0.628E-03    0.69       1.8  T
   9   -104.9386573 -0.142891E-05  0.358E-03    0.69       3.2  T
  10   -104.9386572  0.333784E-07  0.220E-03    0.69       5.2  T
  11   -104.9386574 -0.152652E-06  0.126E-03    0.69       9.1  T
  12   -104.9386574 -0.415600E-07  0.680E-04    0.69      16.9  T
  13   -104.9386574 -0.537989E-08  0.366E-04    0.69      31.3  T
     SCC iter.                  ...        0 min,  1.103 sec
     gradient                   ...        0 min,  0.110 sec
 * total energy  :  -103.3984941 Eh     change       -0.2359968E-01 Eh
   gradient norm :     0.0848979 Eh/α   predicted    -0.2128690E-01 (  -9.80%)
   displ. norm   :     0.7152434 α      lambda       -0.2495547E-01
   maximum displ.:     0.1948662 α      in ANC's #55, #12, #33, ...

........................................................................
.............................. CYCLE   15 ..............................
........................................................................

 iter      E             dE          RMSdq      gap      omega  full diag
   1   -104.9454879 -0.104945E+03  0.555E-01    0.94       0.0  T
   2   -104.9288472  0.166407E-01  0.584E-01    0.71       1.0  T
   3   -104.9587062 -0.298590E-01  0.217E-01    0.83       1.0  T
   4   -104.9604749 -0.176873E-02  0.827E-02    0.77       1.0  T
   5   -104.9609007 -0.425791E-03  0.329E-02    0.78       1.0  T
   6   -104.9609277 -0.269960E-04  0.184E-02    0.78       1.0  T
   7   -104.9609372 -0.955378E-05  0.805E-03    0.78       1.4  T
   8   -104.9609386 -0.137594E-05  0.472E-03    0.78       2.4  T
   9   -104.9609392 -0.610382E-06  0.260E-03    0.78       4.4  T
  10   -104.9609392 -0.123645E-07  0.156E-03    0.78       7.4  T
  11   -104.9609393 -0.437085E-07  0.951E-04    0.78      12.1  T
  12   -104.9609393 -0.302098E-07  0.509E-04    0.78      22.5  T
     SCC iter.                  ...        0 min,  1.521 sec
     gradient                   ...        0 min,  0.160 sec
 * total energy  :  -103.4188411 Eh     change       -0.2034705E-01 Eh
   gradient norm :     0.0837537 Eh/α   predicted    -0.1886103E-01 (  -7.30%)
   displ. norm   :     0.6604383 α      lambda       -0.1980532E-01
   maximum displ.:     0.1737325 α      in ANC's #33, #27, #8, ...

........................................................................
.............................. CYCLE   16 ..............................
........................................................................

 iter      E             dE          RMSdq      gap      omega  full diag
   1   -104.9646847 -0.104965E+03  0.378E-01    0.95       0.0  T
   2   -104.9634735  0.121121E-02  0.282E-01    0.80       1.0  T
   3   -104.9677699 -0.429642E-02  0.159E-01    0.89       1.0  T
   4   -104.9687614 -0.991476E-03  0.559E-02    0.84       1.0  T
   5   -104.9689528 -0.191459E-03  0.227E-02    0.85       1.0  T
   6   -104.9689651 -0.122961E-04  0.117E-02    0.85       1.0  T
   7   -104.9689708 -0.567938E-05  0.520E-03    0.85       2.2  T
   8   -104.9689720 -0.118100E-05  0.226E-03    0.85       5.1  T
   9   -104.9689721 -0.123469E-06  0.119E-03    0.85       9.6  T
  10   -104.9689721 -0.168488E-07  0.617E-04    0.85      18.6  T
  11   -104.9689721 -0.847643E-08  0.316E-04    0.85      36.3  T
     SCC iter.                  ...        0 min,  1.583 sec
     gradient                   ...        0 min,  0.113 sec
 * total energy  :  -103.4344156 Eh     change       -0.1557449E-01 Eh
   gradient norm :     0.0675924 Eh/α   predicted    -0.1422199E-01 (  -8.68%)
   displ. norm   :     0.6286374 α      lambda       -0.1610697E-01
   maximum displ.:     0.1768112 α      in ANC's #44, #27, #8, ...

........................................................................
.............................. CYCLE   17 ..............................
........................................................................

 iter      E             dE          RMSdq      gap      omega  full diag
   1   -104.9865828 -0.104987E+03  0.278E-01    0.94       0.0  T
   2   -104.9868799 -0.297055E-03  0.160E-01    0.88       1.0  T
   3   -104.9869296 -0.497040E-04  0.116E-01    0.91       1.0  T
   4   -104.9875082 -0.578576E-03  0.357E-02    0.88       1.0  T
   5   -104.9875735 -0.653643E-04  0.176E-02    0.89       1.0  T
   6   -104.9875846 -0.110329E-04  0.771E-03    0.88       1.5  T
   7   -104.9875875 -0.294298E-05  0.364E-03    0.89       3.2  T
   8   -104.9875882 -0.672264E-06  0.179E-03    0.88       6.4  T
   9   -104.9875882 -0.332974E-07  0.123E-03    0.88       9.3  T
  10   -104.9875882 -0.217956E-07  0.723E-04    0.88      15.9  T
  11   -104.9875882 -0.765336E-08  0.443E-04    0.88      25.9  T
     SCC iter.                  ...        0 min,  1.456 sec
     gradient                   ...        0 min,  0.124 sec
 * total energy  :  -103.4459081 Eh     change       -0.1149249E-01 Eh
   gradient norm :     0.0627299 Eh/α   predicted    -0.1123610E-01 (  -2.23%)
   displ. norm   :     0.6518731 α      lambda       -0.1369090E-01
   maximum displ.:     0.1938236 α      in ANC's #8, #27, #33, ...

........................................................................
.............................. CYCLE   18 ..............................
........................................................................

 iter      E             dE          RMSdq      gap      omega  full diag
   1   -104.9845961 -0.104985E+03  0.229E-01    0.97       0.0  T
   2   -104.9847464 -0.150331E-03  0.128E-01    0.95       1.0  T
   3   -104.9845458  0.200663E-03  0.816E-02    0.96       1.0  T
   4   -104.9848565 -0.310785E-03  0.237E-02    0.95       1.0  T
   5   -104.9848748 -0.182309E-04  0.118E-02    0.95       1.0  T
   6   -104.9848812 -0.642321E-05  0.472E-03    0.95       2.4  T
   7   -104.9848821 -0.947265E-06  0.236E-03    0.95       4.9  T
   8   -104.9848825 -0.312827E-06  0.102E-03    0.95      11.3  T
   9   -104.9848825 -0.261214E-07  0.547E-04    0.95      21.0  T
  10   -104.9848825 -0.617786E-08  0.262E-04    0.95      43.7  T
     SCC iter.                  ...        0 min,  0.994 sec
     gradient                   ...        0 min,  0.111 sec
 * total energy  :  -103.4545704 Eh     change       -0.8662311E-02 Eh
   gradient norm :     0.0578467 Eh/α   predicted    -0.9754349E-02 (  12.61%)
   displ. norm   :     0.6010934 α      lambda       -0.1042362E-01
   maximum displ.:     0.1859943 α      in ANC's #8, #13, #27, ...

........................................................................
.............................. CYCLE   19 ..............................
........................................................................

 iter      E             dE          RMSdq      gap      omega  full diag
   1   -104.9970453 -0.104997E+03  0.177E-01    1.00       0.0  T
   2   -104.9971156 -0.702549E-04  0.103E-01    0.97       1.0  T
   3   -104.9970089  0.106653E-03  0.578E-02    0.98       1.0  T
   4   -104.9971586 -0.149722E-03  0.162E-02    0.97       1.0  T
   5   -104.9971663 -0.768740E-05  0.885E-03    0.97       1.3  T
   6   -104.9971692 -0.284404E-05  0.358E-03    0.97       3.2  T
   7   -104.9971698 -0.609033E-06  0.199E-03    0.97       5.8  T
   8   -104.9971698 -0.641411E-07  0.142E-03    0.97       8.1  T
   9   -104.9971698 -0.101043E-07  0.814E-04    0.97      14.1  T
  10   -104.9971699 -0.174249E-07  0.451E-04    0.97      25.4  T
     SCC iter.                  ...        0 min,  1.466 sec
     gradient                   ...        0 min,  0.112 sec
 * total energy  :  -103.4621617 Eh     change       -0.7591246E-02 Eh
   gradient norm :     0.0626300 Eh/α   predicted    -0.7094900E-02 (  -6.54%)
   displ. norm   :     0.6334745 α      lambda       -0.1160524E-01
   maximum displ.:     0.2019286 α      in ANC's #13, #8, #27, ...

........................................................................
.............................. CYCLE   20 ..............................
........................................................................

 iter      E             dE          RMSdq      gap      omega  full diag
   1   -105.0210729 -0.105021E+03  0.175E-01    1.03       0.0  T
   2   -105.0211477 -0.747916E-04  0.105E-01    1.00       1.0  T
   3   -105.0210395  0.108204E-03  0.589E-02    1.02       1.0  T
   4   -105.0211965 -0.156950E-03  0.167E-02    1.00       1.0  T
   5   -105.0212048 -0.836088E-05  0.887E-03    1.00       1.3  T
   6   -105.0212073 -0.246894E-05  0.348E-03    1.00       3.3  T
   7   -105.0212080 -0.692117E-06  0.157E-03    1.00       7.3  T
   8   -105.0212081 -0.803969E-07  0.924E-04    1.00      12.4  T
   9   -105.0212081 -0.963325E-08  0.621E-04    1.00      18.5  T
     SCC iter.                  ...        0 min,  0.962 sec
     gradient                   ...        0 min,  0.111 sec
 * total energy  :  -103.4708192 Eh     change       -0.8657555E-02 Eh
   gradient norm :     0.0506037 Eh/α   predicted    -0.8131165E-02 (  -6.08%)
   displ. norm   :     0.6666374 α      lambda       -0.9148863E-02
   maximum displ.:     0.2277495 α      in ANC's #13, #8, #27, ...
 * RMSD in coord.:     0.9909880 α      energy gain  -0.2602879E+01 Eh

generating ANC from exact Hessian ...
Using Lindh-Hessian (1995)
 Shifting diagonal of input Hessian by    1.7170266007046665E-002
 Lowest  eigenvalues of input Hessian
    0.010000    0.017085    0.000000    0.000000    0.000000    0.000000
    0.000000    0.000000    0.017219    0.017316    0.017401    0.017450
    0.017704    0.017764    0.017975    0.018163    0.018246    0.018459
 Highest eigenvalues
    1.962537    1.982386    2.005541    2.029119    2.042289    2.186955


........................................................................
.............................. CYCLE   21 ..............................
........................................................................

 iter      E             dE          RMSdq      gap      omega  full diag
   1   -105.0341355 -0.105034E+03  0.154E-01    1.04       0.0  T
   2   -105.0341935 -0.579789E-04  0.914E-02    1.01       1.0  T
   3   -105.0341096  0.838707E-04  0.528E-02    1.03       1.0  T
   4   -105.0342315 -0.121913E-03  0.145E-02    1.01       1.0  T
   5   -105.0342393 -0.775537E-05  0.734E-03    1.02       1.6  T
   6   -105.0342409 -0.161714E-05  0.296E-03    1.02       3.9  T
   7   -105.0342415 -0.602472E-06  0.992E-04    1.02      11.6  T
   8   -105.0342415 -0.319600E-07  0.575E-04    1.02      20.0  T
     SCC iter.                  ...        0 min,  1.012 sec
     gradient                   ...        0 min,  0.120 sec
 * total energy  :  -103.4786440 Eh     change       -0.7824783E-02 Eh
   gradient norm :     0.0430191 Eh/α   predicted     0.0000000E+00 (-100.00%)
   displ. norm   :     0.3981783 α      lambda       -0.9288726E-02
   maximum displ.:     0.1637175 α      in ANC's #13, #33, #26, ...

........................................................................
.............................. CYCLE   22 ..............................
........................................................................

 iter      E             dE          RMSdq      gap      omega  full diag
   1   -105.0384087 -0.105038E+03  0.191E-01    1.01       0.0  T
   2   -105.0384997 -0.910072E-04  0.104E-01    1.01       1.0  T
   3   -105.0383909  0.108834E-03  0.531E-02    1.00       1.0  T
   4   -105.0385170 -0.126138E-03  0.234E-02    1.02       1.0  T
   5   -105.0385421 -0.250121E-04  0.102E-02    1.01       1.1  T
   6   -105.0385437 -0.166837E-05  0.513E-03    1.01       2.2  T
   7   -105.0385441 -0.321071E-06  0.289E-03    1.01       4.0  T
   8   -105.0385442 -0.180388E-06  0.187E-03    1.01       6.1  T
   9   -105.0385443 -0.573997E-07  0.119E-03    1.01       9.6  T
  10   -105.0385443 -0.459514E-07  0.517E-04    1.01      22.2  T
  11   -105.0385443 -0.397571E-08  0.305E-04    1.01      37.7  T
     SCC iter.                  ...        0 min,  1.370 sec
     gradient                   ...        0 min,  0.111 sec
 * total energy  :  -103.4859457 Eh     change       -0.7301668E-02 Eh
   gradient norm :     0.0240818 Eh/α   predicted    -0.5380957E-02 ( -26.31%)
   displ. norm   :     0.6815760 α      lambda       -0.9887595E-02
   maximum displ.:     0.2895993 α      in ANC's #13, #33, #1, ...

........................................................................
.............................. CYCLE   23 ..............................
........................................................................

 iter      E             dE          RMSdq      gap      omega  full diag
   1   -105.0403939 -0.105040E+03  0.239E-01    0.99       0.0  T
   2   -105.0405266 -0.132712E-03  0.132E-01    1.00       1.0  T
   3   -105.0403596  0.166918E-03  0.666E-02    0.98       1.0  T
   4   -105.0405610 -0.201323E-03  0.288E-02    1.00       1.0  T
   5   -105.0405976 -0.365808E-04  0.138E-02    0.99       1.0  T
   6   -105.0406014 -0.384518E-05  0.618E-03    1.00       1.9  T
   7   -105.0406021 -0.722938E-06  0.391E-03    0.99       2.9  T
   8   -105.0406021 -0.235019E-07  0.277E-03    1.00       4.1  T
   9   -105.0406023 -0.123777E-06  0.158E-03    0.99       7.3  T
  10   -105.0406024 -0.981809E-07  0.688E-04    1.00      16.7  T
  11   -105.0406024 -0.731407E-08  0.381E-04    1.00      30.1  T
     SCC iter.                  ...        0 min,  1.259 sec
     gradient                   ...        0 min,  0.143 sec
 * total energy  :  -103.4926548 Eh     change       -0.6709149E-02 Eh
   gradient norm :     0.0284907 Eh/α   predicted    -0.7240431E-02 (   7.92%)
   displ. norm   :     0.7109930 α      lambda       -0.7958806E-02
   maximum displ.:     0.3338080 α      in ANC's #13, #33, #1, ...

........................................................................
.............................. CYCLE   24 ..............................
........................................................................

 iter      E             dE          RMSdq      gap      omega  full diag
   1   -105.0397882 -0.105040E+03  0.385E-01    1.10       0.0  T
   2   -105.0400070 -0.218842E-03  0.170E-01    1.09       1.0  T
   3   -105.0399441  0.629281E-04  0.612E-02    1.06       1.0  T
   4   -105.0400119 -0.678102E-04  0.324E-02    1.08       1.0  T
   5   -105.0400504 -0.384886E-04  0.148E-02    1.06       1.0  T
   6   -105.0400618 -0.114273E-04  0.660E-03    1.07       1.7  T
   7   -105.0400626 -0.839302E-06  0.347E-03    1.07       3.3  T
   8   -105.0400628 -0.191566E-06  0.218E-03    1.07       5.3  T
   9   -105.0400629 -0.362132E-07  0.144E-03    1.07       8.0  T
  10   -105.0400629 -0.746128E-07  0.778E-04    1.07      14.7  T
  11   -105.0400629 -0.664839E-08  0.352E-04    1.07      32.5  T
     SCC iter.                  ...        0 min,  1.101 sec
     gradient                   ...        0 min,  0.111 sec
 * total energy  :  -103.4966135 Eh     change       -0.3958695E-02 Eh
   gradient norm :     0.0387396 Eh/α   predicted    -0.5991117E-02 (  51.34%)
   displ. norm   :     0.5105319 α      lambda       -0.6346001E-02
   maximum displ.:     0.2721699 α      in ANC's #13, #33, #1, ...

........................................................................
.............................. CYCLE   25 ..............................
........................................................................

 iter      E             dE          RMSdq      gap      omega  full diag
   1   -105.0494830 -0.105049E+03  0.156E-01    1.13       0.0  T
   2   -105.0495433 -0.603009E-04  0.810E-02    1.11       1.0  T
   3   -105.0495281  0.152548E-04  0.356E-02    1.12       1.0  T
   4   -105.0495392 -0.111342E-04  0.200E-02    1.11       1.0  T
   5   -105.0495560 -0.167718E-04  0.975E-03    1.12       1.2  T
   6   -105.0495598 -0.381160E-05  0.467E-03    1.12       2.5  T
   7   -105.0495604 -0.619879E-06  0.245E-03    1.12       4.7  T
   8   -105.0495605 -0.835308E-07  0.155E-03    1.12       7.4  T
   9   -105.0495605 -0.189425E-08  0.849E-04    1.12      13.5  T
  10   -105.0495605 -0.207214E-07  0.446E-04    1.12      25.7  T
     SCC iter.                  ...        0 min,  1.106 sec
     gradient                   ...        0 min,  0.216 sec
 * total energy  :  -103.5016880 Eh     change       -0.5074517E-02 Eh
   gradient norm :     0.0267760 Eh/α   predicted    -0.4000025E-02 ( -21.17%)
   displ. norm   :     0.6514927 α      lambda       -0.6558836E-02
   maximum displ.:     0.3473056 α      in ANC's #13, #10, #33, ...

........................................................................
.............................. CYCLE   26 ..............................
........................................................................

 iter      E             dE          RMSdq      gap      omega  full diag
   1   -105.0635927 -0.105064E+03  0.146E-01    1.23       0.0  T
   2   -105.0636787 -0.859747E-04  0.830E-02    1.20       1.0  T
   3   -105.0636468  0.318175E-04  0.406E-02    1.21       1.0  T
   4   -105.0636973 -0.504512E-04  0.174E-02    1.20       1.0  T
   5   -105.0637084 -0.110885E-04  0.899E-03    1.20       1.3  T
   6   -105.0637116 -0.318051E-05  0.430E-03    1.20       2.7  T
   7   -105.0637122 -0.629491E-06  0.201E-03    1.20       5.7  T
   8   -105.0637123 -0.114127E-06  0.950E-04    1.20      12.1  T
   9   -105.0637123 -0.121689E-07  0.500E-04    1.20      22.9  T
     SCC iter.                  ...        0 min,  1.019 sec
     gradient                   ...        0 min,  0.111 sec
 * total energy  :  -103.5066654 Eh     change       -0.4977362E-02 Eh
   gradient norm :     0.0176081 Eh/α   predicted    -0.4671352E-02 (  -6.15%)
   displ. norm   :     0.7755279 α      lambda       -0.5057521E-02
   maximum displ.:     0.4154436 α      in ANC's #13, #33, #4, ...

........................................................................
.............................. CYCLE   27 ..............................
........................................................................

 iter      E             dE          RMSdq      gap      omega  full diag
   1   -105.0661858 -0.105066E+03  0.150E-01    1.30       0.0  T
   2   -105.0662860 -0.100260E-03  0.827E-02    1.27       1.0  T
   3   -105.0662456  0.404638E-04  0.477E-02    1.27       1.0  T
   4   -105.0663276 -0.819865E-04  0.108E-02    1.27       1.1  T
   5   -105.0663311 -0.353330E-05  0.655E-03    1.27       1.8  T
   6   -105.0663328 -0.170510E-05  0.283E-03    1.27       4.1  T
   7   -105.0663330 -0.202312E-06  0.157E-03    1.27       7.3  T
   8   -105.0663330 -0.318797E-07  0.105E-03    1.27      10.9  T
   9   -105.0663330 -0.155937E-07  0.684E-04    1.27      16.8  T
  10   -105.0663331 -0.569995E-08  0.360E-04    1.27      31.9  T
     SCC iter.                  ...        0 min,  1.379 sec
     gradient                   ...        0 min,  0.110 sec
 * total energy  :  -103.5109305 Eh     change       -0.4265102E-02 Eh
   gradient norm :     0.0181496 Eh/α   predicted    -0.4049669E-02 (  -5.05%)
   displ. norm   :     0.7455552 α      lambda       -0.4400052E-02
   maximum displ.:     0.3850338 α      in ANC's #13, #4, #10, ...

........................................................................
.............................. CYCLE   28 ..............................
........................................................................

 iter      E             dE          RMSdq      gap      omega  full diag
   1   -105.0735641 -0.105074E+03  0.154E-01    1.32       0.0  T
   2   -105.0736900 -0.125882E-03  0.797E-02    1.28       1.0  T
   3   -105.0736629  0.271580E-04  0.473E-02    1.28       1.0  T
   4   -105.0737419 -0.790153E-04  0.123E-02    1.28       1.0  T
   5   -105.0737465 -0.458184E-05  0.644E-03    1.28       1.8  T
   6   -105.0737484 -0.198632E-05  0.197E-03    1.28       5.8  T
   7   -105.0737486 -0.159542E-06  0.881E-04    1.28      13.0  T
   8   -105.0737486 -0.115481E-07  0.410E-04    1.28      28.0  T
     SCC iter.                  ...        0 min,  0.887 sec
     gradient                   ...        0 min,  0.143 sec
 * total energy  :  -103.5145929 Eh     change       -0.3662357E-02 Eh
   gradient norm :     0.0148568 Eh/α   predicted    -0.3422922E-02 (  -6.54%)
   displ. norm   :     0.7117510 α      lambda       -0.3328649E-02
   maximum displ.:     0.3384757 α      in ANC's #13, #4, #10, ...

........................................................................
.............................. CYCLE   29 ..............................
........................................................................

 iter      E             dE          RMSdq      gap      omega  full diag
   1   -105.0771087 -0.105077E+03  0.142E-01    1.28       0.0  T
   2   -105.0772260 -0.117231E-03  0.720E-02    1.25       1.0  T
   3   -105.0772070  0.189908E-04  0.425E-02    1.25       1.0  T
   4   -105.0772713 -0.643329E-04  0.125E-02    1.24       1.0  T
   5   -105.0772769 -0.556558E-05  0.596E-03    1.24       1.9  T
   6   -105.0772782 -0.135816E-05  0.183E-03    1.24       6.3  T
   7   -105.0772784 -0.135724E-06  0.876E-04    1.24      13.1  T
   8   -105.0772784 -0.585240E-08  0.475E-04    1.24      24.2  T
     SCC iter.                  ...        0 min,  0.883 sec
     gradient                   ...        0 min,  0.111 sec
 * total energy  :  -103.5172218 Eh     change       -0.2628946E-02 Eh
   gradient norm :     0.0106055 Eh/α   predicted    -0.2507455E-02 (  -4.62%)
   displ. norm   :     0.6350666 α      lambda       -0.2237112E-02
   maximum displ.:     0.2643201 α      in ANC's #13, #4, #6, ...

........................................................................
.............................. CYCLE   30 ..............................
........................................................................

 iter      E             dE          RMSdq      gap      omega  full diag
   1   -105.0831963 -0.105083E+03  0.104E-01    1.22       0.0  T
   2   -105.0832511 -0.548075E-04  0.547E-02    1.20       1.0  T
   3   -105.0832345  0.166325E-04  0.300E-02    1.20       1.0  T
   4   -105.0832694 -0.348905E-04  0.878E-03    1.20       1.3  T
   5   -105.0832725 -0.316358E-05  0.383E-03    1.20       3.0  T
   6   -105.0832730 -0.464920E-06  0.147E-03    1.20       7.8  T
   7   -105.0832731 -0.693098E-07  0.737E-04    1.20      15.6  T
   8   -105.0832731 -0.178458E-07  0.364E-04    1.20      31.5  T
     SCC iter.                  ...        0 min,  0.918 sec
     gradient                   ...        0 min,  0.111 sec
 * total energy  :  -103.5189980 Eh     change       -0.1776188E-02 Eh
   gradient norm :     0.0126778 Eh/α   predicted    -0.1569681E-02 ( -11.63%)
   displ. norm   :     0.6731725 α      lambda       -0.2176460E-02
   maximum displ.:     0.3004819 α      in ANC's #4, #6, #13, ...

........................................................................
.............................. CYCLE   31 ..............................
........................................................................

 iter      E             dE          RMSdq      gap      omega  full diag
   1   -105.0825713 -0.105083E+03  0.870E-02    1.17       0.0  T
   2   -105.0825872 -0.158317E-04  0.497E-02    1.16       1.0  T
   3   -105.0825648  0.223993E-04  0.235E-02    1.16       1.0  T
   4   -105.0825925 -0.277012E-04  0.772E-03    1.16       1.5  T
   5   -105.0825947 -0.223824E-05  0.361E-03    1.16       3.2  T
   6   -105.0825949 -0.208719E-06  0.159E-03    1.16       7.2  T
   7   -105.0825950 -0.105115E-06  0.897E-04    1.16      12.8  T
   8   -105.0825951 -0.253514E-07  0.545E-04    1.16      21.0  T
     SCC iter.                  ...        0 min,  1.071 sec
     gradient                   ...        0 min,  0.119 sec
 * total energy  :  -103.5208824 Eh     change       -0.1884401E-02 Eh
   gradient norm :     0.0152082 Eh/α   predicted    -0.1581375E-02 ( -16.08%)
   displ. norm   :     0.7538716 α      lambda       -0.2807513E-02
   maximum displ.:     0.3542697 α      in ANC's #4, #6, #7, ...

........................................................................
.............................. CYCLE   32 ..............................
........................................................................

 iter      E             dE          RMSdq      gap      omega  full diag
   1   -105.0884021 -0.105088E+03  0.966E-02    1.14       0.0  T
   2   -105.0884189 -0.167744E-04  0.557E-02    1.14       1.0  T
   3   -105.0883776  0.413065E-04  0.291E-02    1.15       1.0  T
   4   -105.0884247 -0.471604E-04  0.874E-03    1.14       1.3  T
   5   -105.0884290 -0.428657E-05  0.300E-03    1.14       3.8  T
   6   -105.0884291 -0.147874E-06  0.162E-03    1.14       7.1  T
   7   -105.0884292 -0.617372E-07  0.837E-04    1.14      13.7  T
   8   -105.0884292 -0.220344E-07  0.440E-04    1.14      26.1  T
     SCC iter.                  ...        0 min,  1.149 sec
     gradient                   ...        0 min,  0.124 sec
 * total energy  :  -103.5233336 Eh     change       -0.2451195E-02 Eh
   gradient norm :     0.0171214 Eh/α   predicted    -0.2201546E-02 ( -10.18%)
   displ. norm   :     0.7882184 α      lambda       -0.2917628E-02
   maximum displ.:     0.3793088 α      in ANC's #4, #6, #7, ...

........................................................................
.............................. CYCLE   33 ..............................
........................................................................

 iter      E             dE          RMSdq      gap      omega  full diag
   1   -105.0881857 -0.105088E+03  0.996E-02    1.15       0.0  T
   2   -105.0882170 -0.313073E-04  0.556E-02    1.15       1.0  T
   3   -105.0881896  0.274041E-04  0.292E-02    1.16       1.0  T
   4   -105.0882251 -0.354605E-04  0.946E-03    1.15       1.2  T
   5   -105.0882311 -0.604486E-05  0.277E-03    1.15       4.1  T
   6   -105.0882313 -0.210143E-06  0.130E-03    1.15       8.8  T
   7   -105.0882314 -0.302917E-07  0.654E-04    1.15      17.6  T
   8   -105.0882314 -0.178420E-07  0.231E-04    1.15      49.8  T
     SCC iter.                  ...        0 min,  0.968 sec
     gradient                   ...        0 min,  0.169 sec
 * total energy  :  -103.5259376 Eh     change       -0.2603985E-02 Eh
   gradient norm :     0.0161845 Eh/α   predicted    -0.2365161E-02 (  -9.17%)
   displ. norm   :     0.8161699 α      lambda       -0.2921317E-02
   maximum displ.:     0.3994108 α      in ANC's #4, #6, #7, ...

........................................................................
.............................. CYCLE   34 ..............................
........................................................................

 iter      E             dE          RMSdq      gap      omega  full diag
   1   -105.0896590 -0.105090E+03  0.988E-02    1.17       0.0  T
   2   -105.0896990 -0.400607E-04  0.545E-02    1.17       1.0  T
   3   -105.0896832  0.157984E-04  0.276E-02    1.17       1.0  T
   4   -105.0897126 -0.293965E-04  0.561E-03    1.17       2.0  T
   5   -105.0897141 -0.150939E-05  0.274E-03    1.17       4.2  T
   6   -105.0897144 -0.240011E-06  0.114E-03    1.17      10.1  T
   7   -105.0897144 -0.471981E-07  0.535E-04    1.17      21.5  T
   8   -105.0897144 -0.115179E-07  0.210E-04    1.17      54.6  T
     SCC iter.                  ...        0 min,  1.136 sec
     gradient                   ...        0 min,  0.145 sec
 * total energy  :  -103.5285825 Eh     change       -0.2644949E-02 Eh
   gradient norm :     0.0148557 Eh/α   predicted    -0.2433660E-02 (  -7.99%)
   displ. norm   :     0.8574778 α      lambda       -0.2883904E-02
   maximum displ.:     0.4280966 α      in ANC's #4, #6, #7, ...

........................................................................
.............................. CYCLE   35 ..............................
........................................................................

 iter      E             dE          RMSdq      gap      omega  full diag
   1   -105.0922255 -0.105092E+03  0.929E-02    1.19       0.0  T
   2   -105.0922523 -0.268553E-04  0.522E-02    1.19       1.0  T
   3   -105.0922362  0.161048E-04  0.246E-02    1.18       1.0  T
   4   -105.0922612 -0.249350E-04  0.570E-03    1.18       2.0  T
   5   -105.0922627 -0.147213E-05  0.241E-03    1.18       4.8  T
   6   -105.0922628 -0.157345E-06  0.114E-03    1.18      10.1  T
   7   -105.0922629 -0.564051E-07  0.496E-04    1.18      23.1  T
   8   -105.0922629 -0.115995E-07  0.196E-04    1.18      58.6  T
     SCC iter.                  ...        0 min,  0.717 sec
     gradient                   ...        0 min,  0.111 sec
 * total energy  :  -103.5312360 Eh     change       -0.2653475E-02 Eh
   gradient norm :     0.0120049 Eh/α   predicted    -0.2502176E-02 (  -5.70%)
   displ. norm   :     0.8792770 α      lambda       -0.2827410E-02
   maximum displ.:     0.4461638 α      in ANC's #4, #6, #7, ...

........................................................................
.............................. CYCLE   36 ..............................
........................................................................

 iter      E             dE          RMSdq      gap      omega  full diag
   1   -105.0942319 -0.105094E+03  0.897E-02    1.19       0.0  T
   2   -105.0942458 -0.139116E-04  0.516E-02    1.19       1.0  T
   3   -105.0942194  0.264049E-04  0.235E-02    1.18       1.0  T
   4   -105.0942496 -0.301478E-04  0.756E-03    1.19       1.5  T
   5   -105.0942526 -0.305324E-05  0.252E-03    1.19       4.5  T
   6   -105.0942528 -0.126966E-06  0.121E-03    1.19       9.5  T
   7   -105.0942528 -0.620687E-07  0.484E-04    1.19      23.7  T
   8   -105.0942528 -0.695574E-08  0.225E-04    1.19      50.9  T
     SCC iter.                  ...        0 min,  0.800 sec
     gradient                   ...        0 min,  0.110 sec
 * total energy  :  -103.5338671 Eh     change       -0.2631093E-02 Eh
   gradient norm :     0.0113320 Eh/α   predicted    -0.2506683E-02 (  -4.73%)
   displ. norm   :     0.8978014 α      lambda       -0.2792220E-02
   maximum displ.:     0.4646085 α      in ANC's #4, #6, #7, ...

........................................................................
.............................. CYCLE   37 ..............................
........................................................................

 iter      E             dE          RMSdq      gap      omega  full diag
   1   -105.0969607 -0.105097E+03  0.879E-02    1.19       0.0  T
   2   -105.0969710 -0.103010E-04  0.509E-02    1.17       1.0  T
   3   -105.0969550  0.160302E-04  0.195E-02    1.17       1.0  T
   4   -105.0969719 -0.168504E-04  0.731E-03    1.17       1.6  T
   5   -105.0969748 -0.294086E-05  0.227E-03    1.17       5.1  T
   6   -105.0969749 -0.899570E-07  0.130E-03    1.17       8.8  T
   7   -105.0969750 -0.790410E-07  0.473E-04    1.17      24.3  T
   8   -105.0969750 -0.542227E-08  0.198E-04    1.17      58.0  T
     SCC iter.                  ...        0 min,  0.891 sec
     gradient                   ...        0 min,  0.112 sec
 * total energy  :  -103.5365102 Eh     change       -0.2643111E-02 Eh
   gradient norm :     0.0102479 Eh/α   predicted    -0.2521445E-02 (  -4.60%)
   displ. norm   :     0.8849976 α      lambda       -0.2858535E-02
   maximum displ.:     0.4647124 α      in ANC's #4, #6, #8, ...

........................................................................
.............................. CYCLE   38 ..............................
........................................................................

 iter      E             dE          RMSdq      gap      omega  full diag
   1   -105.1068103 -0.105107E+03  0.977E-02    1.18       0.0  T
   2   -105.1068271 -0.167877E-04  0.556E-02    1.16       1.0  T
   3   -105.1068051  0.219742E-04  0.232E-02    1.16       1.0  T
   4   -105.1068274 -0.223205E-04  0.963E-03    1.16       1.2  T
   5   -105.1068327 -0.524341E-05  0.282E-03    1.15       4.1  T
   6   -105.1068328 -0.179645E-06  0.124E-03    1.16       9.3  T
   7   -105.1068329 -0.548101E-07  0.583E-04    1.16      19.7  T
   8   -105.1068329 -0.876108E-08  0.302E-04    1.16      38.0  T
     SCC iter.                  ...        0 min,  0.997 sec
     gradient                   ...        0 min,  0.111 sec
 * total energy  :  -103.5390920 Eh     change       -0.2581775E-02 Eh
   gradient norm :     0.0130369 Eh/α   predicted    -0.2548703E-02 (  -1.28%)
   displ. norm   :     0.9299748 α      lambda       -0.2929865E-02
   maximum displ.:     0.4911457 α      in ANC's #4, #6, #7, ...

........................................................................
.............................. CYCLE   39 ..............................
........................................................................

 iter      E             dE          RMSdq      gap      omega  full diag
   1   -105.0973511 -0.105097E+03  0.104E-01    1.13       0.0  T
   2   -105.0973717 -0.205675E-04  0.588E-02    1.12       1.0  T
   3   -105.0973585  0.132369E-04  0.206E-02    1.12       1.0  T
   4   -105.0973750 -0.164948E-04  0.677E-03    1.12       1.7  T
   5   -105.0973773 -0.229702E-05  0.261E-03    1.12       4.4  T
   6   -105.0973774 -0.186997E-06  0.109E-03    1.12      10.5  T
   7   -105.0973775 -0.288059E-07  0.516E-04    1.12      22.2  T
   8   -105.0973775 -0.943896E-08  0.261E-04    1.12      43.9  T
     SCC iter.                  ...        0 min,  0.780 sec
     gradient                   ...        0 min,  0.111 sec
 * total energy  :  -103.5416577 Eh     change       -0.2565702E-02 Eh
   gradient norm :     0.0137980 Eh/α   predicted    -0.2731890E-02 (   6.48%)
   displ. norm   :     0.8594240 α      lambda       -0.2651307E-02
   maximum displ.:     0.4619548 α      in ANC's #4, #6, #8, ...

........................................................................
.............................. CYCLE   40 ..............................
........................................................................

 iter      E             dE          RMSdq      gap      omega  full diag
   1   -105.1011809 -0.105101E+03  0.959E-02    1.11       0.0  T
   2   -105.1011906 -0.963170E-05  0.547E-02    1.10       1.0  T
   3   -105.1011803  0.102741E-04  0.157E-02    1.11       1.0  T
   4   -105.1011915 -0.111897E-04  0.552E-03    1.10       2.1  T
   5   -105.1011935 -0.199890E-05  0.202E-03    1.10       5.7  T
   6   -105.1011936 -0.114068E-06  0.104E-03    1.10      11.0  T
   7   -105.1011936 -0.361769E-07  0.512E-04    1.10      22.4  T
   8   -105.1011936 -0.848577E-08  0.246E-04    1.10      46.6  T
     SCC iter.                  ...        0 min,  0.902 sec
     gradient                   ...        0 min,  0.112 sec
 * total energy  :  -103.5441438 Eh     change       -0.2486121E-02 Eh
   gradient norm :     0.0135679 Eh/α   predicted    -0.2304802E-02 (  -7.29%)
   displ. norm   :     0.8589580 α      lambda       -0.2801258E-02
   maximum displ.:     0.4607950 α      in ANC's #4, #6, #14, ...

........................................................................
.............................. CYCLE   41 ..............................
........................................................................

 iter      E             dE          RMSdq      gap      omega  full diag
   1   -105.1082285 -0.105108E+03  0.999E-02    1.11       0.0  T
   2   -105.1082339 -0.534402E-05  0.568E-02    1.10       1.0  T
   3   -105.1082310  0.282955E-05  0.102E-02    1.10       1.1  T
   4   -105.1082346 -0.357769E-05  0.393E-03    1.10       2.9  T
   5   -105.1082353 -0.632781E-06  0.174E-03    1.10       6.6  T
   6   -105.1082353 -0.784930E-07  0.878E-04    1.10      13.1  T
   7   -105.1082354 -0.212991E-07  0.494E-04    1.10      23.2  T
     SCC iter.                  ...        0 min,  0.674 sec
     gradient                   ...        0 min,  0.142 sec
 * total energy  :  -103.5466840 Eh     change       -0.2540164E-02 Eh
   gradient norm :     0.0101164 Eh/α   predicted    -0.2434030E-02 (  -4.18%)
   displ. norm   :     0.9150252 α      lambda       -0.2649105E-02
   maximum displ.:     0.4931218 α      in ANC's #4, #6, #14, ...

........................................................................
.............................. CYCLE   42 ..............................
........................................................................

 iter      E             dE          RMSdq      gap      omega  full diag
   1   -105.1108897 -0.105111E+03  0.950E-02    1.11       0.0  T
   2   -105.1108976 -0.796938E-05  0.542E-02    1.11       1.0  T
   3   -105.1108870  0.106709E-04  0.146E-02    1.11       1.0  T
   4   -105.1108999 -0.129722E-04  0.413E-03    1.11       2.8  T
   5   -105.1109005 -0.597791E-06  0.210E-03    1.11       5.5  T
   6   -105.1109007 -0.149119E-06  0.902E-04    1.11      12.7  T
   7   -105.1109007 -0.100149E-07  0.524E-04    1.11      21.9  T
     SCC iter.                  ...        0 min,  0.988 sec
     gradient                   ...        0 min,  0.175 sec
 * total energy  :  -103.5492027 Eh     change       -0.2518715E-02 Eh
   gradient norm :     0.0099014 Eh/α   predicted    -0.2433566E-02 (  -3.38%)
   displ. norm   :     0.8845460 α      lambda       -0.2760223E-02
   maximum displ.:     0.4718300 α      in ANC's #4, #6, #14, ...
 * RMSD in coord.:     1.6314689 α      energy gain  -0.7838345E-01 Eh

generating ANC from exact Hessian ...
Using Lindh-Hessian (1995)
 Shifting diagonal of input Hessian by    1.4092415694934662E-002
 Lowest  eigenvalues of input Hessian
    0.010000    0.000000    0.000000    0.000000    0.000000    0.000000
    0.000000    0.014143    0.014179    0.014264    0.014336    0.014345
    0.014417    0.014628    0.014761    0.015125    0.015190    0.015345
 Highest eigenvalues
    1.978357    1.999128    2.010571    2.021749    2.049349    2.181554


........................................................................
.............................. CYCLE   43 ..............................
........................................................................

 iter      E             dE          RMSdq      gap      omega  full diag
   1   -105.1230858 -0.105123E+03  0.955E-02    1.13       0.0  T
   2   -105.1230990 -0.132481E-04  0.561E-02    1.13       1.0  T
   3   -105.1230713  0.277025E-04  0.221E-02    1.13       1.0  T
   4   -105.1231023 -0.310093E-04  0.687E-03    1.13       1.7  T
   5   -105.1231050 -0.268496E-05  0.254E-03    1.13       4.5  T
   6   -105.1231052 -0.151001E-06  0.123E-03    1.13       9.3  T
   7   -105.1231052 -0.326978E-07  0.695E-04    1.13      16.5  T
   8   -105.1231052 -0.491856E-08  0.429E-04    1.13      26.7  T
     SCC iter.                  ...        0 min,  1.155 sec
     gradient                   ...        0 min,  0.143 sec
 * total energy  :  -103.5516967 Eh     change       -0.2494011E-02 Eh
   gradient norm :     0.0111840 Eh/α   predicted     0.0000000E+00 (-100.00%)
   displ. norm   :     0.2052459 α      lambda       -0.9064235E-03
   maximum displ.:     0.1117576 α      in ANC's #4, #14, #10, ...

........................................................................
.............................. CYCLE   44 ..............................
........................................................................

 iter      E             dE          RMSdq      gap      omega  full diag
   1   -105.1208661 -0.105121E+03  0.341E-02    1.14       0.0  T
   2   -105.1208673 -0.127759E-05  0.194E-02    1.13       1.0  T
   3   -105.1208659  0.142462E-05  0.596E-03    1.13       1.9  T
   4   -105.1208675 -0.163782E-05  0.220E-03    1.13       5.2  T
   5   -105.1208676 -0.103933E-06  0.123E-03    1.13       9.4  T
   6   -105.1208677 -0.478238E-07  0.673E-04    1.13      17.0  T
   7   -105.1208677 -0.129113E-07  0.355E-04    1.13      32.3  T
     SCC iter.                  ...        0 min,  0.647 sec
     gradient                   ...        0 min,  0.142 sec
 * total energy  :  -103.5525184 Eh     change       -0.8216577E-03 Eh
   gradient norm :     0.0059238 Eh/α   predicted    -0.4724181E-03 ( -42.50%)
   displ. norm   :     0.7554210 α      lambda       -0.2730542E-02
   maximum displ.:     0.4133579 α      in ANC's #4, #14, #10, ...

........................................................................
.............................. CYCLE   45 ..............................
........................................................................

 iter      E             dE          RMSdq      gap      omega  full diag
   1   -105.1132974 -0.105113E+03  0.128E-01    1.14       0.0  T
   2   -105.1133173 -0.199281E-04  0.673E-02    1.14       1.0  T
   3   -105.1132916  0.257234E-04  0.258E-02    1.14       1.0  T
   4   -105.1133180 -0.263579E-04  0.118E-02    1.14       1.0  T
   5   -105.1133238 -0.588014E-05  0.562E-03    1.14       2.0  T
   6   -105.1133250 -0.117840E-05  0.242E-03    1.14       4.7  T
   7   -105.1133252 -0.146709E-06  0.121E-03    1.14       9.5  T
   8   -105.1133252 -0.658741E-08  0.829E-04    1.14      13.8  T
   9   -105.1133252 -0.476061E-08  0.479E-04    1.14      24.0  T
     SCC iter.                  ...        0 min,  1.145 sec
     gradient                   ...        0 min,  0.168 sec
 * total energy  :  -103.5545888 Eh     change       -0.2070399E-02 Eh
   gradient norm :     0.0135864 Eh/α   predicted    -0.2144383E-02 (   3.57%)
   displ. norm   :     0.7738801 α      lambda       -0.2710452E-02
   maximum displ.:     0.4196139 α      in ANC's #4, #14, #10, ...

........................................................................
.............................. CYCLE   46 ..............................
........................................................................

 iter      E             dE          RMSdq      gap      omega  full diag
   1   -105.1058280 -0.105106E+03  0.198E-01    1.17       0.0  T
   2   -105.1058632 -0.351208E-04  0.909E-02    1.15       1.0  T
   3   -105.1058346  0.285978E-04  0.285E-02    1.15       1.0  T
   4   -105.1058632 -0.286343E-04  0.157E-02    1.14       1.0  T
   5   -105.1058725 -0.931029E-05  0.641E-03    1.14       1.8  T
   6   -105.1058739 -0.138225E-05  0.291E-03    1.14       3.9  T
   7   -105.1058741 -0.234769E-06  0.103E-03    1.14      11.1  T
   8   -105.1058741 -0.198380E-07  0.561E-04    1.14      20.5  T
   9   -105.1058742 -0.728717E-08  0.328E-04    1.14      35.0  T
     SCC iter.                  ...        0 min,  1.021 sec
     gradient                   ...        0 min,  0.167 sec
 * total energy  :  -103.5561598 Eh     change       -0.1571054E-02 Eh
   gradient norm :     0.0247514 Eh/α   predicted    -0.2166858E-02 (  37.92%)
   displ. norm   :     0.5411077 α      lambda       -0.2184080E-02
   maximum displ.:     0.3137303 α      in ANC's #4, #14, #10, ...

........................................................................
.............................. CYCLE   47 ..............................
........................................................................

 iter      E             dE          RMSdq      gap      omega  full diag
   1   -105.1087001 -0.105109E+03  0.846E-02    1.15       0.0  T
   2   -105.1087076 -0.741795E-05  0.428E-02    1.14       1.0  T
   3   -105.1086895  0.180625E-04  0.186E-02    1.15       1.0  T
   4   -105.1087096 -0.200558E-04  0.825E-03    1.14       1.4  T
   5   -105.1087120 -0.245675E-05  0.386E-03    1.14       3.0  T
   6   -105.1087125 -0.476387E-06  0.149E-03    1.14       7.7  T
[...]
        89        2.0000           -0.5115207             -13.9192
        90        2.0000           -0.5077457             -13.8165
        91        2.0000           -0.5052051             -13.7473
        92        2.0000           -0.5004714             -13.6185
        93        2.0000           -0.4952770             -13.4772
        94        2.0000           -0.4865498             -13.2397
        95        2.0000           -0.4830473             -13.1444
        96        2.0000           -0.4546034             -12.3704
        97        2.0000           -0.4338732             -11.8063 (HOMO)
        98                         -0.3776949             -10.2776 (LUMO)
        99                         -0.3719349             -10.1209
       100                         -0.3590366              -9.7699
       101                         -0.3315652              -9.0223
       102                         -0.3307173              -8.9993
       103                         -0.3280362              -8.9263
       104                         -0.3234615              -8.8018
       105                         -0.2969312              -8.0799
       106                         -0.2844780              -7.7410
       107                         -0.2788222              -7.5871
       108                         -0.2659003              -7.2355
       ...                                ...                  ...
       202                          1.1164125              30.3791
      -------------------------------------------------------------
                  HL-Gap            0.0561783 Eh            1.5287 eV
             Fermi-level           -0.4057841 Eh          -11.0419 eV

     #   Z          covCN         q      C6AA      α(0)
     1   6 C        3.765    -0.127    22.973     6.832
     2   6 C        3.902     0.044    19.776     6.321
     3   6 C        3.755    -0.122    22.895     6.823
     4   7 N        2.677    -0.133    23.889     7.259
     5   6 C        3.870     0.046    19.756     6.320
     6   6 C        3.754    -0.119    22.844     6.815
     7   6 C        3.754    -0.124    22.937     6.829
     8  15 P        4.519     0.230   150.428    22.032
     9  34 Se       1.891    -0.023   236.455    26.795
    10  16 S        2.030    -0.068   143.864    20.187
    11   6 C        2.972     0.040    27.101     8.539
    12   6 C        2.970    -0.035    28.857     8.811
    13   6 C        2.922    -0.022    28.561     8.764
    14   6 C        2.919    -0.023    28.576     8.766
    15   6 C        2.922    -0.022    28.559     8.764
    16   6 C        2.946    -0.031    28.784     8.799
    17   7 N        2.692    -0.104    23.292     7.168
    18   6 C        3.773    -0.034    21.215     6.563
    19   6 C        3.236     0.053    25.957     8.265
    20   6 C        2.917    -0.054    29.329     8.881
    21   6 C        2.925    -0.026    28.651     8.778
    22   6 C        2.922    -0.038    28.939     8.822
    23   6 C        2.996     0.024    27.462     8.596
    24   6 C        3.253    -0.023    27.480     8.481
    25   6 C        3.863     0.018    20.229     6.396
    26   6 C        3.833    -0.057    21.565     6.607
    27   6 C        3.809    -0.068    21.794     6.645
    28   6 C        3.866    -0.052    21.462     6.588
    29   6 C        3.808    -0.063    21.699     6.631
    30   6 C        2.964     0.009    27.817     8.651
    31   6 C        2.910    -0.045    29.128     8.850
    32   6 C        2.907    -0.020    28.513     8.756
    33   6 C        2.903    -0.053    29.322     8.879
    34   6 C        2.909     0.103    25.726     8.317
    35   6 C        3.927     0.010    20.342     6.410
    36   7 N        1.831    -0.256    27.502     7.771
    37   6 C        3.702    -0.022    21.119     6.571
    38   1 H        0.925     0.062     2.176     2.307
    39   1 H        0.925     0.071     2.072     2.251
    40   1 H        0.925     0.075     2.026     2.226
    41   1 H        0.924     0.056     2.242     2.342
    42   1 H        0.925     0.058     2.222     2.331
    43   1 H        0.925     0.069     2.093     2.262
    44   1 H        0.925     0.053     2.286     2.365
    45   1 H        0.924     0.061     2.188     2.313
    46   1 H        0.925     0.068     2.103     2.268
    47   1 H        0.925     0.051     2.311     2.377
    48   1 H        0.925     0.053     2.280     2.361
    49   1 H        0.925     0.053     2.280     2.362
    50   1 H        0.925     0.056     2.247     2.344
    51   1 H        0.925     0.062     2.172     2.305
    52   1 H        0.926     0.048     2.345     2.395
    53   1 H        0.926     0.057     2.231     2.336
    54   1 H        0.926     0.059     2.214     2.327
    55   1 H        0.926     0.057     2.235     2.338
    56   1 H        0.925     0.049     2.327     2.386
    57   1 H        0.924     0.064     2.154     2.295
    58   1 H        0.924     0.067     2.117     2.275
    59   1 H        0.924     0.062     2.174     2.306
    60   1 H        0.926     0.048     2.346     2.395
    61   1 H        0.926     0.059     2.212     2.326
    62   1 H        0.926     0.054     2.267     2.355
    63   1 H        0.924     0.050     2.326     2.385
    64   1 H        0.924     0.046     2.369     2.407
    65   1 H        0.925     0.078     1.996     2.209
    66   1 H        0.925     0.055     2.256     2.349
    67   1 H        0.924     0.049     2.337     2.391
    68   1 H        0.924     0.050     2.326     2.385
    69   1 H        0.924     0.061     2.189     2.314
    70   1 H        0.924     0.057     2.240     2.340
    71   1 H        0.926     0.042     2.419     2.432
    72   1 H        0.926     0.047     2.354     2.399
    73   1 H        0.926     0.047     2.352     2.398
    74   1 H        0.924     0.030     2.592     2.518
    75   1 H        0.924     0.050     2.316     2.380
    76   1 H        0.925     0.050     2.320     2.382

 Mol. C6AA /au·bohr⁶  :      71564.663598
 Mol. C8AA /au·bohr⁸  :    1984457.049745
 Mol. α(0) /au        :        422.717721


Wiberg/Mayer (AO) data.
largest (>0.10) Wiberg bond orders for each atom

 ---------------------------------------------------------------------------
     #   Z sym  total        # sym  WBO       # sym  WBO       # sym  WBO
 ---------------------------------------------------------------------------
     1   6 C    3.990 --     2 C    1.008    40 H    0.976    39 H    0.953
                            38 H    0.952
     2   6 C    3.960 --     1 C    1.008     3 C    1.005    41 H    0.958
                             4 N    0.939
     3   6 C    3.987 --     2 C    1.005    42 H    0.982    43 H    0.979
                            44 H    0.971
     4   7 N    3.426 --     8 P    1.288     2 C    0.939     5 C    0.927
     5   6 C    3.953 --     6 C    1.008     7 C    1.004    45 H    0.956
                             4 N    0.927
     6   6 C    3.990 --     5 C    1.008    47 H    0.979    46 H    0.977
                            48 H    0.969
     7   6 C    3.991 --     5 C    1.004    51 H    0.981    49 H    0.980
                            50 H    0.977
     8  15 P    4.770 --     4 N    1.288    17 N    1.224     9 Se   0.961
                            25 C    0.822
     9  34 Se   2.616 --    10 S    1.233     8 P    0.961
    10  16 S    2.423 --     9 Se   1.233    11 C    0.976
    11   6 C    3.952 --    16 C    1.406    12 C    1.397    10 S    0.976
                            14 C    0.102
    12   6 C    3.989 --    13 C    1.439    11 C    1.397    52 H    0.967
                            15 C    0.108
    13   6 C    3.986 --    12 C    1.439    14 C    1.437    53 H    0.967
                            16 C    0.109
    14   6 C    3.982 --    13 C    1.437    15 C    1.434    54 H    0.969
                            11 C    0.102
    15   6 C    3.990 --    16 C    1.441    14 C    1.434    55 H    0.967
                            12 C    0.108
    16   6 C    3.989 --    15 C    1.441    11 C    1.406    56 H    0.951
                            13 C    0.109
    17   7 N    3.481 --     8 P    1.224    19 C    1.018    18 C    0.982
    18   6 C    3.961 --    17 N    0.982    59 H    0.971    58 H    0.969
                            57 H    0.967
    19   6 C    3.956 --    20 C    1.394    24 C    1.339    17 N    1.018
    20   6 C    3.977 --    21 C    1.422    19 C    1.394    60 H    0.966
    21   6 C    3.988 --    22 C    1.453    20 C    1.422    61 H    0.968
                            24 C    0.103
    22   6 C    3.985 --    21 C    1.453    23 C    1.388    62 H    0.964
    23   6 C    3.981 --    24 C    1.398    22 C    1.388    35 C    0.947
    24   6 C    3.981 --    23 C    1.398    19 C    1.339    25 C    0.972
                            21 C    0.103
    25   6 C    3.975 --    26 C    0.974    24 C    0.972    28 C    0.965
                             8 P    0.822
    26   6 C    3.990 --    27 C    0.991    25 C    0.974    64 H    0.968
                            63 H    0.958
    27   6 C    3.982 --    26 C    0.991    66 H    0.974    65 H    0.968
                            35 C    0.965
    28   6 C    3.991 --    29 C    0.987    68 H    0.967    25 C    0.965
                            67 H    0.955
    29   6 C    3.989 --    30 C    1.018    28 C    0.987    70 H    0.969
                            69 H    0.952
    30   6 C    3.984 --    31 C    1.755    29 C    1.018    35 C    0.978
                            33 C    0.112
    31   6 C    3.987 --    30 C    1.755    32 C    1.153    71 H    0.964
    32   6 C    3.988 --    33 C    1.723    31 C    1.153    72 H    0.968
                            36 N    0.100
    33   6 C    3.989 --    32 C    1.723    34 C    1.111    73 H    0.961
                            30 C    0.112
    34   6 C    3.975 --    36 N    1.769    33 C    1.111    35 C    0.963
    35   6 C    3.989 --    30 C    0.978    27 C    0.965    34 C    0.963
                            23 C    0.947
    36   7 N    3.071 --    34 C    1.769    37 C    1.040    32 C    0.100
    37   6 C    3.986 --    36 N    1.040    76 H    0.980    74 H    0.966
                            75 H    0.957
    38   1 H    0.996 --     1 C    0.952
    39   1 H    0.995 --     1 C    0.953
    40   1 H    0.992 --     1 C    0.976
    41   1 H    0.995 --     2 C    0.958
    42   1 H    0.997 --     3 C    0.982
    43   1 H    0.994 --     3 C    0.979
    44   1 H    0.997 --     3 C    0.971
    45   1 H    0.995 --     5 C    0.956
    46   1 H    0.994 --     6 C    0.977
    47   1 H    0.997 --     6 C    0.979
    48   1 H    0.997 --     6 C    0.969
    49   1 H    0.997 --     7 C    0.980
    50   1 H    0.997 --     7 C    0.977
    51   1 H    0.995 --     7 C    0.981
    52   1 H    0.998 --    12 C    0.967
    53   1 H    0.996 --    13 C    0.967
    54   1 H    0.995 --    14 C    0.969
    55   1 H    0.997 --    15 C    0.967
    56   1 H    0.997 --    16 C    0.951
    57   1 H    0.995 --    18 C    0.967
    58   1 H    0.995 --    18 C    0.969
    59   1 H    0.996 --    18 C    0.971
    60   1 H    0.997 --    20 C    0.966
    61   1 H    0.995 --    21 C    0.968
    62   1 H    0.995 --    22 C    0.964
    63   1 H    0.997 --    26 C    0.958
    64   1 H    0.997 --    26 C    0.968
    65   1 H    0.993 --    27 C    0.968
    66   1 H    0.996 --    27 C    0.974
    67   1 H    0.996 --    28 C    0.955
    68   1 H    0.997 --    28 C    0.967
    69   1 H    0.996 --    29 C    0.952
    70   1 H    0.995 --    29 C    0.969
    71   1 H    0.997 --    31 C    0.964
    72   1 H    0.997 --    32 C    0.968
    73   1 H    0.996 --    33 C    0.961
    74   1 H    0.999 --    37 C    0.966
    75   1 H    0.997 --    37 C    0.957
    76   1 H    0.996 --    37 C    0.980
 ---------------------------------------------------------------------------

Topologies differ in total number of bonds
Writing topology from bond orders to xtbtopo.mol

molecular dipole:
                 x           y           z       tot (Debye)
 q only:        2.294      -0.420      -0.107
   full:        2.098      -0.115       0.283       5.388
molecular quadrupole (traceless):
                xx          xy          yy          xz          yz          zz
 q only:       16.611      -4.559     -18.784       6.492       8.311       2.173
  q+dip:       22.990      -7.684     -24.350       6.026       8.585       1.359
   full:       21.029      -6.319     -21.671       7.130       9.193       0.642

           -------------------------------------------------
          |                Geometry Summary                 |
           -------------------------------------------------

      molecular mass/u    :      595.6605497
   center of mass at/Å    :        0.3082503       0.4799525       0.0884935
  moments of inertia/u·Å² :        0.3570538E+04   0.7374293E+04   0.8450094E+04
rotational constants/cm⁻¹ :        0.4721314E-02   0.2286000E-02   0.1994964E-02

 * 70 selected distances

     #   Z          #   Z                                           value/Å
     1   6 C        2   6 C                                       1.5227124
     2   6 C        3   6 C                                       1.5256965
     2   6 C        4   7 N                                       1.4782414
     4   7 N        5   6 C                                       1.4827844
     5   6 C        6   6 C                                       1.5242592
     5   6 C        7   6 C                                       1.5265569
     4   7 N        8  15 P                                       1.6534781
    11   6 C       12   6 C                                       1.3874460
    12   6 C       13   6 C                                       1.3840581
    13   6 C       14   6 C                                       1.3851749
    14   6 C       15   6 C                                       1.3856435
    11   6 C       16   6 C                                       1.3845657
    15   6 C       16   6 C                                       1.3832883
     8  15 P       17   7 N                                       1.6665847
    17   7 N       18   6 C                                       1.4501979
    17   7 N       19   6 C                                       1.4121953
    19   6 C       20   6 C                                       1.3826574
    20   6 C       21   6 C                                       1.3892590
    21   6 C       22   6 C                                       1.3842814
    22   6 C       23   6 C                                       1.3904989
    19   6 C       24   6 C                                       1.3881140
    23   6 C       24   6 C                                       1.3799337
     8  15 P       25   6 C                                       1.9025705 (max)
    24   6 C       25   6 C                                       1.4963277
    25   6 C       26   6 C                                       1.5266908
    26   6 C       27   6 C                                       1.5417788
    25   6 C       28   6 C                                       1.5336210
    28   6 C       29   6 C                                       1.5334040
    30   6 C       31   6 C                                       1.3399033
    32   6 C       33   6 C                                       1.3434638
    34   6 C       36   7 N                                       1.2721059
     1   6 C       38   1 H                                       1.0878176
     1   6 C       39   1 H                                       1.0896702
     1   6 C       40   1 H                                       1.0874709
     2   6 C       41   1 H                                       1.0964279
     3   6 C       42   1 H                                       1.0864276
     3   6 C       43   1 H                                       1.0862581
     3   6 C       44   1 H                                       1.0900586
     5   6 C       45   1 H                                       1.0939540
     6   6 C       46   1 H                                       1.0870551
     6   6 C       47   1 H                                       1.0872606
     6   6 C       48   1 H                                       1.0876130
     7   6 C       49   1 H                                       1.0866773
     7   6 C       50   1 H                                       1.0839088
     7   6 C       51   1 H                                       1.0871904
    12   6 C       52   1 H                                       1.0799079
    13   6 C       53   1 H                                       1.0787920
    14   6 C       54   1 H                                       1.0785063
    15   6 C       55   1 H                                       1.0788201
    16   6 C       56   1 H                                       1.0833987
    18   6 C       57   1 H                                       1.0902594
    18   6 C       58   1 H                                       1.0906911
    18   6 C       59   1 H                                       1.0925125
    20   6 C       60   1 H                                       1.0775693
    21   6 C       61   1 H                                       1.0785692
    22   6 C       62   1 H                                       1.0769582 (min)
    26   6 C       63   1 H                                       1.0908574
    26   6 C       64   1 H                                       1.0913398
    27   6 C       65   1 H                                       1.0896558
    27   6 C       66   1 H                                       1.0901177
    28   6 C       67   1 H                                       1.0967177
    28   6 C       68   1 H                                       1.0931802
    29   6 C       69   1 H                                       1.0932718
    29   6 C       70   1 H                                       1.0917531
    31   6 C       71   1 H                                       1.0803285
    32   6 C       72   1 H                                       1.0799135
    33   6 C       73   1 H                                       1.0792399
    37   6 C       74   1 H                                       1.0940999
    37   6 C       75   1 H                                       1.0928142
    37   6 C       76   1 H                                       1.0898859

 * 5 distinct bonds (by element types)

   Z      Z             #   av. dist./Å        max./Å        min./Å
   1 H    6 C          39     1.0871013     1.0967177     1.0769582
   6 C    6 C          23     1.4364928     1.5417788     1.3399033
   6 C    7 N           5     1.4191050     1.4827844     1.2721059
   6 C   15 P           1     1.9025705     1.9025705     1.9025705
   7 N   15 P           2     1.6600314     1.6665847     1.6534781


optimized geometry written to: xtbopt.xyz


           -------------------------------------------------
          | TOTAL ENERGY             -103.693372239023 Eh   |
          | GRADIENT NORM               0.000049323379 Eh/α |
          | HOMO-LUMO GAP               1.528690577214 eV   |
           -------------------------------------------------

------------------------------------------------------------------------
 * finished run on 2024/12/16 at 22:05:02.332     
------------------------------------------------------------------------
 total:
 * wall-time:     0 d,  0 h,  4 min, 31.338 sec
 *  cpu-time:     0 d,  0 h, 35 min, 45.435 sec
 * ratio c/w:     7.907 speedup
 SCF:
 * wall-time:     0 d,  0 h,  0 min,  2.452 sec
 *  cpu-time:     0 d,  0 h,  0 min, 19.488 sec
 * ratio c/w:     7.949 speedup
 ANC optimizer:
 * wall-time:     0 d,  0 h,  4 min, 28.577 sec
 *  cpu-time:     0 d,  0 h, 35 min, 24.370 sec
 * ratio c/w:     7.910 speedup

