88
 energy: -129.143573463318 gnorm: 0.116821352587 xtb: 6.7.1 (edcfbbe)
C            4.11872400000000       -3.36814200000000        0.19405700000000
C            3.48824800000000       -2.72217300000000       -1.04220500000000
C            4.38731500000000       -1.64170500000000       -1.64668700000000
N            2.10227800000000       -2.27206800000000       -0.82177800000000
C            1.10857200000000       -3.01997500000000       -1.63280000000000
C            1.32600900000000       -2.84947100000000       -3.14340200000000
C            1.01774800000000       -4.51709800000000       -1.29727300000000
P            1.61742900000000       -1.03100200000000        0.16518100000000
S            3.14884600000000       -0.20317900000000        1.36047000000000
S            2.24802200000000        1.25023900000000        2.48576700000000
C            2.41699200000000        2.71861500000000        1.48380800000000
C            1.27696700000000        3.14187500000000        0.78348500000000
C            1.30494200000000        4.27831700000000       -0.02556400000000
C            2.47647900000000        5.01389600000000       -0.13928200000000
C            3.61221000000000        4.61961900000000        0.56864000000000
C            3.59773700000000        3.47919300000000        1.40037400000000
C            4.84515400000000        3.12511700000000        2.17353900000000
F            5.46466400000000        2.00156200000000        1.71737600000000
F            4.62968100000000        2.93903500000000        3.50563500000000
F            5.80022600000000        4.10254000000000        2.10560200000000
N            0.88682100000000        0.10656600000000       -0.79170600000000
C            1.81715400000000        0.84446500000000       -1.64276500000000
C           -0.42993100000000       -0.04225300000000       -1.32049100000000
C           -0.65943300000000       -0.00959900000000       -2.71229700000000
C           -1.91635800000000       -0.23465000000000       -3.26482200000000
C           -2.99517600000000       -0.54786600000000       -2.44672400000000
C           -2.81800000000000       -0.53949700000000       -1.04589800000000
C           -1.54586200000000       -0.20706200000000       -0.45793500000000
C           -1.41603800000000        0.03517400000000        0.94147500000000
C           -0.52703000000000       -0.72950300000000        1.74116800000000
C           -0.59310900000000       -0.59838400000000        3.14903700000000
C           -1.44224200000000        0.31262200000000        3.77350800000000
C           -2.22443600000000        1.15592900000000        3.00249300000000
C           -2.20183200000000        1.03707900000000        1.59745600000000
C           -3.04450500000000        2.05364200000000        0.84038900000000
C           -2.87183200000000        3.45864300000000        1.42513100000000
C           -3.01301100000000        3.53075400000000        2.94953900000000
C           -3.13650300000000        2.17174100000000        3.63395400000000
N            0.39485100000000       -1.62449300000000        1.11747000000000
C            0.82113000000000       -2.73181500000000        1.97168500000000
C           -3.94902200000000       -1.08098100000000       -0.17527600000000
C           -5.32970000000000       -0.97133300000000       -0.81536500000000
C           -5.30609700000000       -1.57841600000000       -2.20737400000000
C           -4.33178100000000       -0.81661000000000       -3.09593100000000
H            3.47704800000000       -4.15873300000000        0.59821300000000
H            5.06975900000000       -3.84019200000000       -0.07350200000000
H            4.33167400000000       -2.65858500000000        0.99278400000000
H            3.50007800000000       -3.52284900000000       -1.79052500000000
H            5.38051100000000       -2.05476400000000       -1.85921000000000
H            3.98103500000000       -1.28281900000000       -2.59678600000000
H            4.53118000000000       -0.78148100000000       -0.99258800000000
H            0.11298700000000       -2.62429300000000       -1.41355100000000
H            1.50174600000000       -1.80573800000000       -3.41228000000000
H            0.43708900000000       -3.18204900000000       -3.69120800000000
H            2.17352500000000       -3.43503300000000       -3.51271000000000
H            0.70248000000000       -4.67881200000000       -0.26538300000000
H            0.27090700000000       -5.00133600000000       -1.93676800000000
H            1.96207000000000       -5.04535100000000       -1.45227300000000
H            0.35329100000000        2.56782400000000        0.84842600000000
H            0.41047900000000        4.57887400000000       -0.56612500000000
H            2.50484200000000        5.90045700000000       -0.76968700000000
H            4.51683700000000        5.21981800000000        0.47747800000000
H            2.70497100000000        1.16371700000000       -1.09212800000000
H            1.35944300000000        1.76144800000000       -2.03281100000000
H            2.16610100000000        0.23960100000000       -2.48484600000000
H            0.15157500000000        0.16400700000000       -3.41191500000000
H           -2.03165000000000       -0.20698300000000       -4.34601700000000
H            0.05168400000000       -1.18039000000000        3.79993400000000
H           -1.45056600000000        0.38018400000000        4.85810600000000
H           -4.09863600000000        1.75658300000000        0.89131900000000
H           -2.76707000000000        2.10727100000000       -0.21647600000000
H           -3.58522100000000        4.14605700000000        0.95440900000000
H           -1.87605700000000        3.83233200000000        1.15514500000000
H           -2.13483300000000        4.05706000000000        3.34809400000000
H           -3.87852700000000        4.15067200000000        3.21522100000000
H           -2.92061200000000        2.28761900000000        4.70257200000000
H           -4.16785600000000        1.80455100000000        3.55657200000000
H           -0.04040800000000       -3.24034100000000        2.42025500000000
H            1.50249100000000       -2.40432600000000        2.76349900000000
H            1.35720800000000       -3.49099000000000        1.40296200000000
H           -3.72850100000000       -2.13931000000000        0.01877400000000
H           -4.00625600000000       -0.59318200000000        0.79720800000000
H           -5.63746500000000        0.08055600000000       -0.87069300000000
H           -6.06669300000000       -1.49105900000000       -0.19184700000000
H           -5.00717600000000       -2.63224800000000       -2.14436800000000
H           -6.30758900000000       -1.55518900000000       -2.64922700000000
H           -4.77082100000000        0.15154400000000       -3.36566600000000
H           -4.19137700000000       -1.38347100000000       -4.02404100000000
88
 energy: -129.161582136055 gnorm: 0.049199265686 xtb: 6.7.1 (edcfbbe)
C            4.12168575822827       -3.36134113064562        0.20533268626946
C            3.50086746274741       -2.73137284133820       -1.03938593239708
C            4.38582166115250       -1.63739570335956       -1.63605816123838
N            2.10803601957503       -2.29707264170566       -0.83320512450978
C            1.09733350489424       -3.02261487706044       -1.63521252698682
C            1.32975934746689       -2.84569363364296       -3.13878327403936
C            1.02189298759692       -4.51348172632914       -1.29044273630332
P            1.57416807692266       -1.05544408978045        0.13511070707919
S            3.16993588612850       -0.20208707566828        1.28733198062799
S            2.25153096104778        1.23091713835789        2.44529499692108
C            2.41612981759341        2.72311311705118        1.46881028470375
C            1.28225351236071        3.13523122087753        0.77495424761635
C            1.31030488261489        4.27080357446725       -0.01982259141731
C            2.48029176902331        5.00442027852532       -0.12904510152473
C            3.60986161805958        4.61536919775581        0.57607510869607
C            3.58975836038604        3.48385699113820        1.39391964619049
C            4.83466252887481        3.12726527429133        2.16673616374869
F            5.43223505733473        2.00260212759784        1.70847580772462
F            4.60610196120125        2.93169651811938        3.48289342896921
F            5.77833476730154        4.09417671681975        2.09692615739277
N            0.86372673141951        0.12644531241535       -0.79817585660156
C            1.81286365023252        0.85323147364080       -1.63907206898755
C           -0.45215920706974       -0.03437919594933       -1.33095950172241
C           -0.65759563681541       -0.02072639379897       -2.70968209629456
C           -1.91192999036644       -0.23543083506400       -3.24727041675468
C           -2.99155125785964       -0.55062704291232       -2.43227652848668
C           -2.81530818578034       -0.54690232772771       -1.04395463338142
C           -1.55814772508315       -0.20042384178345       -0.47532805831270
C           -1.42481404033407        0.03802093645240        0.95873949852797
C           -0.53594446177917       -0.71612668681354        1.75077292836036
C           -0.57397572261563       -0.58308204645534        3.14048255242463
C           -1.42836212765604        0.31507224254324        3.75466772026238
C           -2.21824629788137        1.15569915655718        2.98878295703757
C           -2.20211147155427        1.03520853047238        1.59620320705382
C           -3.03925555748261        2.04309816776783        0.84327149213330
C           -2.86085817009213        3.45325124189199        1.42207004978867
C           -3.00913257214787        3.53798429183897        2.94887027711931
C           -3.13127331400976        2.16770674615608        3.61640291443716
N            0.36622754589387       -1.63657564823790        1.12210276539006
C            0.81830800529162       -2.73702888861096        1.97217131008135
C           -3.93847055992153       -1.06755840286547       -0.16898163929606
C           -5.31943785997692       -0.96635022373912       -0.81397789484378
C           -5.30212944308552       -1.58100145720832       -2.20352316536860
C           -4.32359306992930       -0.81841863465174       -3.08671312664952
H            3.47580242239991       -4.14601024689604        0.60000831841981
H            5.06930565004947       -3.82590786220744       -0.06650573848442
H            4.31782851760718       -2.63478357496444        0.99179018356467
H            3.46914496539182       -3.52484514303319       -1.79155488185493
H            5.37190919922924       -2.05173366217314       -1.84592246586394
H            3.97482126276560       -1.28355465939805       -2.58167283657330
H            4.51761129496501       -0.78784932171152       -0.96796487010142
H            0.11902710330297       -2.58966397457129       -1.39502985981394
H            1.50445796619816       -1.80436075090945       -3.39949926741399
H            0.44163261185439       -3.17619354189824       -3.67579643257114
H            2.17209086094333       -3.43467704664160       -3.49933288587754
H            0.70909505211197       -4.67281237323210       -0.26122963558844
H            0.27672320971669       -4.98063700088831       -1.93384132868449
H            1.96521950158554       -5.03202543325324       -1.45286993119719
H            0.36772843350726        2.56082112684013        0.85689455656466
H            0.41970213345491        4.57419066802762       -0.55370785434702
H            2.51325981460996        5.88570044616525       -0.75528795805027
H            4.51333714714778        5.20498319551150        0.49293329522483
H            2.69325651649464        1.15202680490786       -1.06454527707694
H            1.34557161361909        1.76184442389605       -2.02243021388120
H            2.16308248922612        0.25303416716490       -2.48357553276995
H            0.15452618726373        0.16243429052029       -3.39738961495447
H           -2.03288812235420       -0.20004388966675       -4.32204419040518
H            0.05896277802499       -1.18049901726938        3.77987870321992
H           -1.45047704852173        0.37239265056704        4.83453096333177
H           -4.09382010381405        1.75874510208213        0.90687026739326
H           -2.76923575281107        2.06926489410171       -0.21521252322189
H           -3.58141990486747        4.12356650818361        0.94569718171511
H           -1.86761892228794        3.81839744183239        1.14394930289682
H           -2.13469254463076        4.05157243985468        3.35917190577853
H           -3.87982212076157        4.14224054718196        3.21648615367562
H           -2.91606955893571        2.26869425357083        4.68344655891354
H           -4.16152566508114        1.80479442853143        3.53227960429413
H           -0.04812405003950       -3.22417704004353        2.42170465194487
H            1.49747875379613       -2.40858194842539        2.76519942016127
H            1.35100617684675       -3.47860340148889        1.37640687986856
H           -3.71971709126044       -2.12647116595617        0.01650197250167
H           -3.96504521823892       -0.57896061489295        0.80417656055328
H           -5.62490396620326        0.08184379197785       -0.87803570701596
H           -6.05122834430864       -1.48344571827252       -0.18745373223421
H           -5.00093395931380       -2.63025728447620       -2.13678033846734
H           -6.29952882813011       -1.55387791952328       -2.64889748993899
H           -4.76123519858098        0.14908725312153       -3.35670663684443
H           -4.17209246387864       -1.36969775163500       -4.01916373022951
88
 energy: -129.167256221142 gnorm: 0.013945606788 xtb: 6.7.1 (edcfbbe)
C            4.12354482460502       -3.35196121486679        0.21825424624350
C            3.51097088886480       -2.73762209945684       -1.03421665792594
C            4.38680192552992       -1.63611814091293       -1.62303606182683
N            2.11490797310684       -2.31101125735895       -0.83797957869792
C            1.09081148102354       -3.02024310208293       -1.63367448258742
C            1.32167019281108       -2.84362883923636       -3.13449337062528
C            1.01051311495087       -4.50719175901689       -1.29039654706675
P            1.54199955372088       -1.06891734080206        0.10740876539858
S            3.15438400931795       -0.20316036579064        1.21818617464910
S            2.26279635641728        1.20660504388407        2.41227087738657
C            2.41454561663296        2.71416687098923        1.44740010634819
C            1.27975199827519        3.12585007444152        0.76699756579672
C            1.30812237085478        4.26582953345409       -0.01620849895172
C            2.47794857435230        4.99818064819653       -0.12315459703391
C            3.60493958793058        4.61086138491308        0.58042913791414
C            3.58089876417453        3.47869558631515        1.38320159619611
C            4.82190006329170        3.11653244190092        2.16039774799915
F            5.39898290563633        1.99026874163683        1.69756563802579
F            4.57782769333606        2.91207587846602        3.46176399272771
F            5.75626485444879        4.07161769543699        2.09203926277545
N            0.84650848196596        0.15552674268118       -0.79522042785129
C            1.80541050802443        0.87387595844591       -1.63187452353463
C           -0.46594776437149       -0.02628880669390       -1.33820615587497
C           -0.65453085336742       -0.02190402148219       -2.71167803052721
C           -1.90866683927313       -0.23641521814670       -3.23824724864298
C           -2.98596830073154       -0.55236666747273       -2.42137481414825
C           -2.80964522637445       -0.55144245824790       -1.03929930859149
C           -1.56151822582418       -0.19856138938192       -0.48829947353992
C           -1.42110695129236        0.04383308746775        0.96754134298054
C           -0.53882300608853       -0.70615435904396        1.75299358206734
C           -0.55892874755639       -0.57740237003352        3.13364807249977
C           -1.41284625240722        0.31868624908989        3.74184270755055
C           -2.20891092305554        1.15493564623299        2.97777994299547
C           -2.19620141559359        1.03496360844298        1.59065692069441
C           -3.03898779076506        2.02963795601906        0.84391661111169
C           -2.84699039457417        3.44629280573088        1.40971305878768
C           -2.99917808721352        3.53369916020550        2.93801647255369
C           -3.12721505561575        2.15846928334130        3.60140632585018
N            0.34916759516687       -1.64415977351271        1.12067552161373
C            0.81352496489567       -2.74377229998718        1.96696111595644
C           -3.92476595595102       -1.05973893906872       -0.16105455838540
C           -5.30669661214183       -0.95573556016398       -0.80424918369529
C           -5.28831874759860       -1.58172614166678       -2.19062425486747
C           -4.31349021386379       -0.81919894865145       -3.07795407816534
H            3.47849460611732       -4.13245498555698        0.61311916441441
H            5.07527253196245       -3.80583063024525       -0.04423434031255
H            4.29984352640819       -2.60564246162277        0.98936193102589
H            3.45264152476366       -3.52811053607025       -1.78622824920340
H            5.37190258614172       -2.04426055792255       -1.83004488250369
H            3.97062705539608       -1.27850907423510       -2.56179422837744
H            4.50381539581470       -0.80018914337658       -0.93780752686919
H            0.12788548257711       -2.55776648664139       -1.37580075703483
H            1.50151232308310       -1.80309262327802       -3.38432257618160
H            0.43632055343085       -3.17104990625600       -3.67133924236890
H            2.16380664299277       -3.43377957264839       -3.48440138081883
H            0.70665224641512       -4.66448504325481       -0.26052689212309
H            0.26830399382933       -4.97231713584846       -1.93284183974764
H            1.95772546181457       -5.01189158124703       -1.45621256175456
H            0.37613268654495        2.54229250344310        0.85557510440805
H            0.42070485467623        4.57380555924900       -0.54599283609347
H            2.51469250240366        5.87846371161645       -0.74400554283614
H            4.50807646030946        5.19603722802604        0.51138847860581
H            2.67532681011512        1.15602821430498       -1.03651046059434
H            1.33233838561152        1.77773459727478       -2.00945691890931
H            2.16168375317899        0.27751337232980       -2.47616563821125
H            0.16183003160572        0.15890217339551       -3.38938761978139
H           -2.03986238418551       -0.19847119538287       -4.30863694910869
H            0.08269255090170       -1.17131045344954        3.76117738817352
H           -1.43995725315091        0.37771371162655        4.81843262397723
H           -4.09482613153588        1.75826491337542        0.92894167989888
H           -2.78301729645002        2.03394837634713       -0.21768465942214
H           -3.57053324228085        4.10601309905126        0.92894297255794
H           -1.85325185107576        3.80091933013796        1.12889151184417
H           -2.12951923473469        4.04194648696218        3.35678516811713
H           -3.87421929997541        4.12794831024756        3.20145955986830
H           -2.92004785472652        2.24664654545346        4.66917962761224
H           -4.15602261810781        1.79980681311075        3.49770966570220
H           -0.05456712598533       -3.22145223652992        2.41719573599623
H            1.49321624142401       -2.41640236990909        2.75883700578299
H            1.34373699554142       -3.46756436130410        1.35002744615818
H           -3.71091169091310       -2.11946268717041        0.02323324081873
H           -3.92726453538477       -0.56738951921260        0.80990117548359
H           -5.60661105071206        0.09115882413027       -0.88099090023076
H           -6.03513832526838       -1.46758368698337       -0.17309971793918
H           -4.98661905309986       -2.62844991752043       -2.11952999500808
H           -6.28384024946023       -1.55278124154413       -2.63569604950577
H           -4.75113488696381        0.14903353496650       -3.34387297747642
H           -4.15335005472423       -1.35981422205306       -4.01339567161484
88
 energy: -129.169010037583 gnorm: 0.011420969820 xtb: 6.7.1 (edcfbbe)
C            4.11987030075458       -3.33875100544816        0.23242532598795
C            3.51069699911583       -2.74052895711356       -1.02923844011533
C            4.38593358573407       -1.63545065519872       -1.60928498454312
N            2.11451018882603       -2.31175722587091       -0.83733781536445
C            1.08214575785140       -3.01267023721583       -1.63015476807916
C            1.31210285229512       -2.83609972728956       -3.13043097582507
C            0.99529662171096       -4.49900484293876       -1.28886146405509
P            1.53504106755458       -1.06719334000773        0.09421062752812
S            3.16714051945555       -0.21870797538489        1.18014633752005
S            2.26167535735859        1.17525259989363        2.37815822897980
C            2.40426068977386        2.69801842801404        1.43017992907512
C            1.26920087440760        3.11279364175459        0.75303059974862
C            1.29888450254555        4.26108377130625       -0.01934056461533
C            2.46798858752692        4.99594706460423       -0.11839231096560
C            3.59464321011244        4.60552119651534        0.58484368377083
C            3.56834771300752        3.46484361035688        1.37581361647519
C            4.80652645053346        3.09169937193527        2.15482375905618
F            5.37151269155351        1.96272185710630        1.68480360584620
F            4.55278843021018        2.87960539861607        3.45062338231075
F            5.74395468968846        4.03745350779205        2.09360220752464
N            0.84333475332977        0.17760034756560       -0.78834724663519
C            1.80016007117817        0.90061280630164       -1.62206803981837
C           -0.46392118443350       -0.02023035178436       -1.34261737535949
C           -0.64857143670086       -0.02030564185236       -2.71754307786616
C           -1.90437987206274       -0.23943568301505       -3.23948900602106
C           -2.97866988789993       -0.55584804783630       -2.41873672223657
C           -2.80115040816142       -0.55712818753271       -1.03665555061482
C           -1.55455529823511       -0.20011892081550       -0.49341714391089
C           -1.41131003796607        0.04555001317123        0.96598736331626
C           -0.53062519385315       -0.70212612991984        1.74912926089650
C           -0.53897864121891       -0.56942719994782        3.13021052768008
C           -1.39474722493046        0.32662720013166        3.73744995531409
C           -2.19975582293155        1.15330173903740        2.97231570971773
C           -2.19107512390472        1.03179401162844        1.58481710021115
C           -3.04211592506082        2.01714643529393        0.84016553465558
C           -2.83499285394329        3.43636994776941        1.39547877226964
C           -2.99020493082184        3.52796430766620        2.92366844092762
C           -3.12570055000062        2.15208842937471        3.58732876659405
N            0.34979706110046       -1.64469432765948        1.11378956454280
C            0.81172100730727       -2.74976132172027        1.95451467713905
C           -3.91123649595408       -1.05685833660100       -0.15098213387508
C           -5.29249405257879       -0.94583178079967       -0.79238368524691
C           -5.27737853454550       -1.58134196488099       -2.17569263734251
C           -4.30727922188730       -0.82059946174305       -3.06957412114715
H            3.48099038827665       -4.12112284463323        0.63245743425651
H            5.08029892658400       -3.78269378560295       -0.01522858287368
H            4.28025790346060       -2.57899739183418        0.99408836242182
H            3.45257686165431       -3.53343694232666       -1.77764020687573
H            5.37386088725535       -2.03681269152534       -1.81500060698949
H            3.97013366068827       -1.26955252631317       -2.54440739123191
H            4.49584736332052       -0.80810634258172       -0.91289933702316
H            0.12640420496917       -2.53844861501568       -1.36589820555727
H            1.49688489301638       -1.79564685768982       -3.37745496404261
H            0.42702642902066       -3.16112136407276       -3.66865014646730
H            2.15383329687208       -3.42922083546345       -3.47661566638358
H            0.69458875719530       -4.65841446854513       -0.25844428349874
H            0.25289436052679       -4.96308348512945       -1.93112615109710
H            1.94372265439337       -5.00100873234236       -1.45732664163690
H            0.36917457341893        2.52422362425094        0.84079436344949
H            0.41149047540183        4.57713358697770       -0.54418084836592
H            2.50629978047738        5.88076821755892       -0.73248412937584
H            4.49838047333939        5.19147822305308        0.52761990573571
H            2.66348285989006        1.18207853478932       -1.01997700687001
H            1.32149727506861        1.80299182409767       -1.99556241632140
H            2.16212951048491        0.30993064336101       -2.46763169952853
H            0.16961650501387        0.16163433832645       -3.39202011620187
H           -2.04420079298648       -0.20075891529680       -4.30859761363623
H            0.11043087306274       -1.15972161930082        3.75249525513635
H           -1.42169809140549        0.39086340677765        4.81343724357655
H           -4.09827476270386        1.75384631848100        0.94885645916352
H           -2.80453341060896        2.00821709197376       -0.22587033936023
H           -3.55345114961608        4.09731151350600        0.91074802217492
H           -1.83775620509998        3.77860000508433        1.11280173167623
H           -2.12102178553313        4.03330711043922        3.34598466144687
H           -3.86599282337997        4.12250480753842        3.18211884045658
H           -2.93164296709804        2.23702318360190        4.65702855740716
H           -4.15274437006219        1.79397854006754        3.46556555720517
H           -0.05782564367741       -3.22627291221717        2.40331784318933
H            1.49281167918923       -2.42781075981578        2.74685361089492
H            1.33840393526025       -3.46728195964775        1.32981992660484
H           -3.70357368237925       -2.11714742449470        0.03661430704165
H           -3.90159678911684       -0.56037695240375        0.81765453269839
H           -5.58370212251323        0.10267115436180       -0.87816704889379
H           -6.02296900120799       -1.44819155303700       -0.15685753447946
H           -4.97247065982242       -2.62652573868976       -2.09832204475222
H           -6.27408242218121       -1.55624696145214       -2.61767085819465
H           -4.74542877268606        0.14851082360032       -3.33147415142591
H           -4.14846636160454       -1.35919663167515       -4.00571353690226
88
 energy: -129.170477079761 gnorm: 0.010870181562 xtb: 6.7.1 (edcfbbe)
C            4.11280691125138       -3.32404512931410        0.25127529269698
C            3.50898750042567       -2.74443894143349       -1.02224442219578
C            4.38473926484230       -1.63733430410046       -1.59632877531602
N            2.11267529397237       -2.31386379029839       -0.83590087990810
C            1.07144199729091       -3.00429721137611       -1.62772385529521
C            1.29960873968017       -2.82517069566518       -3.12725084747417
C            0.97288713988195       -4.48997122778696       -1.28909112254421
P            1.53751490232899       -1.06304284907813        0.07785753922028
S            3.15274183466914       -0.21198979870705        1.16266822290089
S            2.24316657518338        1.16436058506053        2.37393317172902
C            2.38607519066931        2.67730969514802        1.41107750414495
C            1.25050138820996        3.09719617693797        0.73693135570649
C            1.28264734219973        4.25531593807820       -0.02199300279964
C            2.45112080334981        4.99299539741816       -0.11005496123341
C            3.57810726505498        4.59600014109133        0.59045375376931
C            3.54971944662333        3.44337211033449        1.36588839356534
C            4.78380415799043        3.05210651410439        2.14506889693754
F            5.33402741115156        1.91833744786781        1.66457529110672
F            4.52119679345247        2.83043826907225        3.43701722381469
F            5.73149641502509        3.98477561311560        2.09408341915181
N            0.84664804914358        0.20117290263362       -0.78083862962939
C            1.79602198975080        0.93978227486957       -1.60845784554785
C           -0.45399855894557       -0.01526592087242       -1.34797205893687
C           -0.63880674064252       -0.01783223170452       -2.72436370410956
C           -1.89653804324201       -0.24485729940167       -3.24107652080417
C           -2.96719704709274       -0.56270338453913       -2.41582540645066
C           -2.78725118380042       -0.56579031150910       -1.03314389257657