88
 energy: -129.174679728175 gnorm: 0.000033165450 xtb: 6.7.1 (edcfbbe)
C            4.11083115516605       -3.32433424812181        0.08448290335044
C            3.40914080091818       -2.72903983768270       -1.13093806365418
C            4.22921857807823       -1.61324636600889       -1.76827219746842
N            2.03488512208048       -2.30441149311654       -0.81576893311186
C            0.93174700217734       -2.97000561882550       -1.53977727934736
C            1.07372621691387       -2.82331553437787       -3.05344519543380
C            0.80470820664830       -4.44343822842190       -1.16117297822084
P            1.59031247895905       -0.98665025744517        0.07629502019393
S            3.29610276748509       -0.21023363206260        1.06703986546195
S            2.42144820523829        1.02891858835056        2.43980991067774
C            2.36945465364796        2.64745323854642        1.68048829959935
C            1.11392191743098        3.24086641669046        1.64658595034447
C            0.96482230483054        4.53056001911548        1.16924174270218
C            2.06641366028746        5.22894137977605        0.70447643226900
C            3.31839830383591        4.64054121928292        0.72887416851066
C            3.48525677208195        3.35475477675161        1.23181483777785
C            4.87599031307123        2.77172589106898        1.20709122130449
F            5.05321562120343        2.00059159090285        0.10511102025781
F            5.16366611120590        1.99600258992846        2.25694336293775
F            5.81829796533505        3.71194077048675        1.15441379476675
N            0.86800949579442        0.30137358082869       -0.71590652459113
C            1.71776405889403        1.24330816679653       -1.43547005722963
C           -0.39848022682757       -0.00042749892819       -1.31915194015071
C           -0.57349543608967       -0.03223322270820       -2.69501878490986
C           -1.79212005556830       -0.41883305926665       -3.21502383397849
C           -2.82976415479114       -0.84066121747893       -2.39185780611179
C           -2.67438856099256       -0.76395709877424       -1.00819462866852
C           -1.47508529577592       -0.27126620360479       -0.47573588149904
C           -1.35797814819771        0.06592298350990        0.95775638609828
C           -0.42292772679335       -0.56568538184005        1.77469061015408
C           -0.38257375949431       -0.29071417755930        3.13542845424434
C           -1.22335435438625        0.66366267645007        3.67501001346231
C           -2.10051803248810        1.36254723753798        2.86164360164019
C           -2.17476161144051        1.06132013659322        1.50250234477522
C           -3.12339509814821        1.90256603377039        0.70506610798043
C           -2.83716037399166        3.38392427056650        0.98667592365857
C           -2.83824963746422        3.70842067746313        2.49120257487977
C           -2.99251611180002        2.45196477667677        3.36131067599636
N            0.46580492733730       -1.51482371656836        1.17673761943714
C            0.91235000922499       -2.61314088148485        2.02854180921397
C           -3.74738740571117       -1.28156721189906       -0.09029368698893
C           -5.11865017179657       -1.30141885581079       -0.75478253553935
C           -5.02425808842923       -2.05466182140636       -2.07438584325918
C           -4.11386477727592       -1.29187737878011       -3.02925242367657
H            3.53084663430755       -4.14383313880132        0.50180363053816
H            5.07947867227243       -3.71411141599611       -0.21607028480058
H            4.27381011827494       -2.57571233952977        0.85456936974304
H            3.29921878599736       -3.52349720396238       -1.87235975369282
H            5.17574476052757       -2.01486128009878       -2.11989899091607
H            3.70338667310474       -1.19022459640512       -2.62101898772478
H            4.44783977457162       -0.82138875926017       -1.05541943402030
H            0.01505248233818       -2.45677267892088       -1.22453083348527
H            1.34192697612439       -1.80584371516262       -3.32148303351431
H            0.12572473114931       -3.06036715782541       -3.52799674026374
H            1.82838906676936       -3.49680042071580       -3.45077372474997
H            0.55590099059567       -4.56588740008971       -0.11150819849113
H            0.00705905390935       -4.88813275173356       -1.74996917874989
H            1.72157229371699       -4.98775798849526       -1.37027658569709
H            0.26544392605042        2.67855979217304        2.00607548487529
H           -0.01063532177519        4.99154436496520        1.15890849921306
H            1.95677851700239        6.23263843936980        0.32634540270381
H            4.18037144761135        5.18322655730296        0.37331288023321
H            2.57618405984890        1.51167850130329       -0.82316654313532
H            1.13306085112080        2.14200291577206       -1.62999237841675
H            2.09551546831826        0.85364492852643       -2.38322644183912
H            0.22215972172357        0.25021637905428       -3.36462354698904
H           -1.93169477964139       -0.42438282458239       -4.28542458032350
H            0.31690740078154       -0.79535517415304        3.78066016638715
H           -1.17981380502152        0.87600804547280        4.73195186247825
H           -4.15148297564232        1.68075393771743        1.00323338597418
H           -3.03150660428581        1.70764762137279       -0.36302431838866
H           -3.58241143405072        3.98834782885038        0.46955453721418
H           -1.86509392524306        3.62448921699773        0.55137779596139
H           -1.90434349284288        4.20352180021059        2.76352787307745
H           -3.64925964536562        4.39625900040995        2.72961442347370
H           -2.77039142306255        2.68937677645532        4.40161025081423
H           -4.03009585861191        2.11016252981525        3.31193631498698
H            0.03529804485201       -3.09285885045586        2.46081475943540
H            1.57192213065567       -2.28409491840637        2.83542407460139
H            1.45690210548893       -3.33184424184939        1.42051383042164
H           -3.47327744562300       -2.30719275944953        0.18303089693465
H           -3.77705203106364       -0.70828353639208        0.83441206676562
H           -5.45600882692940       -0.27966970334970       -0.93961136332505
H           -5.83936021395616       -1.78076152473870       -0.09156915578905
H           -4.62130082688922       -3.05335338694269       -1.89348893741780
H           -6.01110594339634       -2.16874536667128       -2.52354947972206
H           -4.63727141410114       -0.39897835244090       -3.38702381036733
H           -3.88894833997250       -1.90073222832831       -3.90745326180952
