72
 energy: -106.005414919591 gnorm: 0.115044788772 xtb: 6.7.1 (edcfbbe)
C            3.77230800000000        5.13881300000000        0.71955900000000
O            2.92881700000000        4.57639900000000        1.71819300000000
C            2.89690200000000        3.21092400000000        1.79729700000000
C            2.16491800000000        2.70184700000000        2.87257000000000
C            2.04680700000000        1.32201100000000        3.06693400000000
C            2.64758200000000        0.43107100000000        2.17408900000000
S            2.53966200000000       -1.34036100000000        2.37069500000000
S            0.53425600000000       -1.66256000000000        2.68572800000000
P           -0.22005400000000       -1.55412200000000        0.72124500000000
N           -0.35215100000000       -3.05973000000000        0.04533700000000
C           -1.59842200000000       -3.83818400000000        0.07498100000000
C           -2.24112800000000       -3.89026800000000        1.46282500000000
C           -2.58437600000000       -3.31874300000000       -0.97528500000000
C            0.86230900000000       -3.85276200000000       -0.21626900000000
C            0.82147400000000       -4.55725600000000       -1.58150500000000
C            1.18728900000000       -4.87110400000000        0.88124400000000
O            0.70849700000000       -0.60629600000000       -0.21744200000000
C            0.32637700000000       -0.29608000000000       -1.48436000000000
C            0.87053100000000       -1.02628700000000       -2.54221100000000
C            0.43827900000000       -0.81391600000000       -3.85740700000000
C           -0.54463900000000        0.13496400000000       -4.12670200000000
C           -1.04272700000000        0.88171600000000       -3.07057300000000
C           -0.57552700000000        0.71442100000000       -1.75263000000000
C           -1.17596200000000        1.77171200000000       -0.86666300000000
C           -2.47207100000000        2.07949600000000       -1.66653700000000
C           -2.09041800000000        1.94884000000000       -3.14654000000000
C           -0.28457100000000        3.03743700000000       -0.75867300000000
C           -0.85855600000000        3.85257100000000        0.41128200000000
C           -1.37884600000000        2.75786400000000        1.29066100000000
C           -1.74205600000000        2.85921300000000        2.62520000000000
C           -2.17389600000000        1.70830400000000        3.28184000000000
C           -2.19368600000000        0.47821200000000        2.61150200000000
C           -1.79781400000000        0.39419300000000        1.27500700000000
C           -1.46487200000000        1.54240300000000        0.58904400000000
O           -1.68015200000000       -0.83158800000000        0.69630500000000
C            3.38228400000000        0.94387400000000        1.10027000000000
C            3.50706100000000        2.32554600000000        0.91045300000000
H            4.81550100000000        4.83651300000000        0.86814200000000
H            3.42402800000000        4.87697000000000       -0.28651700000000
H            3.72360700000000        6.22790500000000        0.81613100000000
H            1.68316700000000        3.38287500000000        3.57007900000000
H            1.47810000000000        0.95963400000000        3.91851100000000
H           -1.40642400000000       -4.88161000000000       -0.19781200000000
H           -3.09564000000000       -4.57548000000000        1.45778800000000
H           -1.53259400000000       -4.25638600000000        2.21222900000000
H           -2.61186600000000       -2.91576200000000        1.79105300000000
H           -3.46459900000000       -3.96928600000000       -1.02256700000000
H           -2.12764300000000       -3.31361400000000       -1.97071700000000
H           -2.94082000000000       -2.30894400000000       -0.76302500000000
H            1.70723000000000       -3.15576600000000       -0.26413600000000
H            0.43565300000000       -3.89849300000000       -2.36353000000000
H            0.20193900000000       -5.45828800000000       -1.56576700000000
H            1.83082500000000       -4.86168500000000       -1.87808300000000
H            2.13621700000000       -5.37349600000000        0.66159000000000
H            1.29374500000000       -4.39762900000000        1.85897500000000
H            0.42023300000000       -5.64685400000000        0.96577200000000
H            1.62613700000000       -1.77993900000000       -2.34504900000000
H            0.85918700000000       -1.40627500000000       -4.66488100000000
H           -0.90164400000000        0.28748400000000       -5.14007400000000
H           -3.24533200000000        1.33312000000000       -1.42962600000000
H           -2.90671800000000        3.06156500000000       -1.45016200000000
H           -2.95045100000000        1.64725400000000       -3.75065600000000
H           -1.66272100000000        2.87616400000000       -3.53989200000000
H            0.74877700000000        2.74634900000000       -0.52358300000000
H           -0.24110100000000        3.63265200000000       -1.67779500000000
H           -1.67307600000000        4.50739300000000        0.08853400000000
H           -0.07975300000000        4.44416200000000        0.90051600000000
H           -1.68772400000000        3.80831900000000        3.14921000000000
H           -2.46995300000000        1.75696600000000        4.32640800000000
H           -2.48961100000000       -0.41933400000000        3.14817700000000
H            3.85577300000000        0.27123200000000        0.38917000000000
H            4.08412100000000        2.66970900000000        0.05738400000000
72
 energy: -106.020181124414 gnorm: 0.058227666961 xtb: 6.7.1 (edcfbbe)
C            3.77069887280152        5.13564106931675        0.71831456008600
O            2.93440105811005        4.56056790769331        1.70744868816439
C            2.89301050698004        3.20500051652642        1.79646818090894
C            2.15596863833108        2.69239493208335        2.86856247878731
C            2.04313527663649        1.32832854385256        3.06212460229002
C            2.64681398662302        0.45167674043079        2.16820365166923
S            2.56872837677042       -1.31695606095662        2.37576185743719
S            0.55160049012888       -1.55148440428838        2.65110448193955
P           -0.24254958231520       -1.58646238456665        0.69606973435556
N           -0.37329621578156       -3.08060887200054        0.01548038445524
C           -1.62506481444002       -3.84390046945430        0.06748857495318
C           -2.24246470668338       -3.88479006685722        1.46417120490445
C           -2.59843785665815       -3.31675153989413       -0.98215600509850
C            0.86547465589221       -3.84776191451784       -0.22116931314350
C            0.81526745974831       -4.54959991453770       -1.58248601301450
C            1.17886533045173       -4.85931743793653        0.88350413409830
O            0.71405968561208       -0.63201922207056       -0.18893127902401
C            0.33340356595654       -0.30167048018744       -1.48250248182558
C            0.86332240223282       -1.03793551177631       -2.54066833313216
C            0.44753775443724       -0.81275610023408       -3.84556910325480
C           -0.53019109818913        0.13417804024932       -4.11443661131625
C           -1.02401685082900        0.88649495358976       -3.06768457390513
C           -0.57102914645526        0.71301051244280       -1.75153234632593
C           -1.17594307944455        1.77549539310066       -0.86743947505223
C           -2.47804851038054        2.09179900415068       -1.65183291580411
C           -2.08484009556834        1.94169673150197       -3.12712669980664
C           -0.27880687658259        3.03765385331617       -0.77616159563250
C           -0.85421149486066        3.83411034556476        0.40490536782981
C           -1.38901304548161        2.75135297910107        1.29034574805864
C           -1.74515920407983        2.84323636130205        2.62104861255436
C           -2.17461515140045        1.69599720180268        3.27433956661055
C           -2.17276131488885        0.47223289532215        2.61816022479629
C           -1.78821010958446        0.38339656365448        1.28062156480584
C           -1.45802740006678        1.53835506700046        0.59299490366937
O           -1.68756428506708       -0.86753527460911        0.68244067331458
C            3.37074581746063        0.95182654832266        1.09424445954185
C            3.50299174956337        2.31981780704074        0.91051906918607
H            4.81076172003079        4.82930434057921        0.85956098882935
H            3.42983989017330        4.87336891942523       -0.28746482150670
H            3.70485786587565        6.21822361729502        0.83906315889357
H            1.68619012038995        3.37407228957349        3.56216598124051
H            1.48101980612970        0.95778849651537        3.90871748151629
H           -1.38236000997892       -4.87430664747898       -0.20379403987137
H           -3.09122404002766       -4.56795109058749        1.45943047183672
H           -1.52537314122573       -4.24630817500894        2.20175512899507
H           -2.60353271893184       -2.90660497231748        1.77786604009963
H           -3.47063030269738       -3.96741110972774       -1.02430134581373
H           -2.12890323804591       -3.30988476633106       -1.96570367148926
H           -2.93431828853272       -2.30766069821640       -0.75292408117849
H            1.69077010594257       -3.12348159339544       -0.25046882206733
H            0.42820417345343       -3.88928120933661       -2.35650029648024
H            0.20035102279380       -5.44742398019901       -1.55754410261386
H            1.82317084620371       -4.85150988895580       -1.86475353511895
H            2.12373372942570       -5.35303946757484        0.65698870371853
H            1.28056061999542       -4.38161599698653        1.85657763243340
H            0.41510375233925       -5.63217372852798        0.95672497423449
H            1.61405292610842       -1.78738174594445       -2.33981906389661
H            0.86793202041533       -1.40045042374245       -4.64906316843370
H           -0.89686045461450        0.27867033201708       -5.12086689138755
H           -3.23583147968382        1.34004326623584       -1.40785115175205
H           -2.89583493495865        3.07207351791666       -1.42344603048810
H           -2.93154050267757        1.64713127446783       -3.74747364985407
H           -1.67084115137389        2.86803715575334       -3.53042526983063
H            0.74523654865075        2.73224261257125       -0.53603321582638
H           -0.24950273438920        3.61638756868691       -1.69978201428553
H           -1.66050979693234        4.49817558592517        0.08726386894484
H           -0.09198971114568        4.43494424817933        0.90201544397976
H           -1.68486800740257        3.78717308846060        3.14395503677090
H           -2.47496648480836        1.74461065636148        4.31129900095527
H           -2.46874590314073       -0.42254457674710        3.14757084805377
H            3.85134060491367        0.27600327704008        0.39999810228486
H            4.08293135874700        2.66606451059635        0.06789733102657
72
 energy: -106.024798579713 gnorm: 0.026880214786 xtb: 6.7.1 (edcfbbe)
C            3.76789074846200        5.13510921195079        0.71565945080196
O            2.93622131326726        4.55186885787826        1.69675502126429
C            2.88846198301121        3.20688790888288        1.79135013445550
C            2.15051361671089        2.69094926061830        2.86377002740304
C            2.04661333016759        1.33690294197759        3.05741826912174
C            2.65742375086731        0.47415662319112        2.16071970886415
S            2.51160128067299       -1.28962126497135        2.34118648678976
S            0.50888255219705       -1.52529048128590        2.64552726653372
P           -0.25288268005478       -1.60159577969915        0.67707080451058
N           -0.39212971853894       -3.08283518284402       -0.01041952932532
C           -1.64636896362854       -3.84439968275695        0.05950843281115
C           -2.24621755201670       -3.87712509771604        1.46061786433564
C           -2.61832406694244       -3.31517855725214       -0.98492489501959
C            0.86278294017356       -3.83329759629958       -0.22588485426536
C            0.81877734836619       -4.53602497214980       -1.58289695696408
C            1.16984882932256       -4.83702120879497        0.88443651555050
O            0.72611055198905       -0.65052985742022       -0.16113908670455
C            0.34250897525839       -0.30913502879333       -1.47961267755869
C            0.86411200823617       -1.05073325370229       -2.53424521461183
C            0.45687301436888       -0.81754420340906       -3.83240721682991
C           -0.51896520238466        0.12906138851047       -4.10078994776109
C           -1.01115862545798        0.88433968505672       -3.05946925739877
C           -0.56323138707445        0.70513753993204       -1.74573471572888
C           -1.16837487105798        1.76793369904155       -0.86300021520600
C           -2.47350421422928        2.08884791498371       -1.63715170260847
C           -2.07836631505818        1.93470680324211       -3.11030651255047
C           -0.27091564829098        3.02875066630303       -0.78142265042363
C           -0.84708501510597        3.81830885256248        0.40155175089349
C           -1.38413318978330        2.73866282426191        1.29082255370842
C           -1.73971670895398        2.82321262119775        2.61853111677366
C           -2.16603347864693        1.67564709726568        3.26934027033060
C           -2.15036210364937        0.45596129407633        2.62172170835842
C           -1.77338711011449        0.37009709419613        1.28503509672960
C           -1.44388867348948        1.52586478439095        0.59772538258957
O           -1.68384928453707       -0.90276862422575        0.66975476753002
C            3.37703989058681        0.96327100964555        1.08805339298478
C            3.50380767880904        2.32423148142837        0.90508840585375
H            4.80767496400064        4.82781724564041        0.84895087098539
H            3.43368855528058        4.87756672354264       -0.29271119068717
H            3.68675084264598        6.21088001720794        0.86051149097389
H            1.68425032469730        3.37637221603417        3.54969326667080
H            1.48222528537578        0.95316488622583        3.89347146836213
H           -1.37093383743655       -4.86610287995658       -0.21246135736784
H           -3.09266827758090       -4.55773167042572        1.46614564864883
H           -1.51759327538457       -4.23134737004486        2.18614831098698
H           -2.59660467565843       -2.89407715668641        1.76075246387356
H           -3.48863384570847       -3.96113235500691       -1.02821842294757
H           -2.14168240801857       -3.30399106447886       -1.96094586604150
H           -2.93772983052029       -2.30703248954691       -0.74109168901034
H            1.66638920950986       -3.08329830438444       -0.23843648088495
H            0.42789651879810       -3.87523079209873       -2.35024410383120
H            0.20281591082320       -5.42915377177850       -1.54782634262962
H            1.82381555006960       -4.84008121084077       -1.85934544037747
H            2.11350394887160       -5.32570931676969        0.65926369214588
H            1.26202949513800       -4.35074545391030        1.85215342903884
H            0.40585861654786       -5.60598067134618        0.94877365236093
H            1.60642934825113       -1.80219385893061       -2.32563474325346
H            0.87971363159555       -1.39942605806658       -4.63440049393706
H           -0.88642695391448        0.27488882970513       -5.10374100779864
H           -3.22789930917367        1.34235606670425       -1.38467221215969
H           -2.86947675029924        3.07172235805415       -1.40085024348725
H           -2.91605163528309        1.64366622228509       -3.74233961339593
H           -1.67459331634152        2.86367285251143       -3.51784708365017
H            0.74959607166536        2.71858336495823       -0.54703843232856
H           -0.26155772071931        3.59419035842817       -1.70875552924469
H           -1.64970921268588        4.48741742469430        0.08499876351633
H           -0.09675269694599        4.42642384356564        0.90510571119674
H           -1.68663637733442        3.76577222365440        3.13889742718349
H           -2.47602192494369        1.72415051609720        4.29971826659343
H           -2.43330046716064       -0.44216386946545        3.14622147200588
H            3.84772480758737        0.28154398216152        0.39868134614160
H            4.08333343080026        2.67839939299428        0.07009497710990
72
 energy: -106.026298867633 gnorm: 0.014064899550 xtb: 6.7.1 (edcfbbe)
C            3.76205753715333        5.13898304347650        0.71347158522776
O            2.93124652079181        4.55024942669430        1.69053708628221
C            2.88325439669110        3.20865327497808        1.78594579261718
C            2.14046540981376        2.69207010534224        2.85587383132605
C            2.03260569074395        1.33692250026596        3.04515234170762
C            2.64329796910743        0.47554652628885        2.14488969125220
S            2.53357771953523       -1.28734164777475        2.35723120592020
S            0.51817055251569       -1.48628503786123        2.62399239883195
P           -0.26868712905266       -1.59762210237047        0.66569272034688
N           -0.40960772080747       -3.07215493057145       -0.02715440718063
C           -1.66007052285955       -3.84370680303888        0.05072203797770
C           -2.24878781536115       -3.86940055123027        1.45556827249305
C           -2.63908210013556       -3.31407573376449       -0.98694660429590
C            0.85314587461142       -3.81381705294837       -0.23045944229019
C            0.82511081893636       -4.52061314928034       -1.58464546716564
C            1.15942725332065       -4.80825607994824        0.88661594572355
O            0.72701213398869       -0.65796975070367       -0.14560838677796
C            0.34571721453866       -0.31796761772246       -1.47633485147213
C            0.87013310165102       -1.06351122271305       -2.52449471937792
C            0.46700026344255       -0.82650145873267       -3.82376128530009
C           -0.50763766214723        0.12277049171924       -4.09359939299060
C           -1.00369930091294        0.87746605370255       -3.05322262901612
C           -0.55651342134094        0.69550344133566       -1.73980970619975
C           -1.15908053100502        1.75609213810542       -0.85771762776059
C           -2.46412803979590        2.08007914616950       -1.62834015108403
C           -2.07236221375685        1.92702843254544       -3.10178051004633
C           -0.26278917829795        3.01688550643735       -0.77860792265909
C           -0.83720175668605        3.80623369140931        0.40431544463217
C           -1.37289420602309        2.72538892869243        1.29391374575311
C           -1.73377258034607        2.80612683531001        2.62080497785164
C           -2.15523650701499        1.65485198795350        3.27070983657681
C           -2.13924825211139        0.43612965561569        2.62109547610519
C           -1.77347857325722        0.36172105097977        1.28235046638034
C           -1.43595548176769        1.51351420372955        0.59958083218727
O           -1.69223085923253       -0.91717535915775        0.65484737579063
C            3.37127384035511        0.96388752955870        1.07717272299598
C            3.50285677046909        2.32679215854444        0.90022086369380
H            4.80340695369226        4.83279163547482        0.84208155270946
H            3.43035317938153        4.88965856133172       -0.29848276844413
H            3.67651688469470        6.21172725251545        0.87028124535875
H            1.67618393446041        3.38301933031880        3.53859751460128
H            1.47743256519172        0.94661820523011        3.88413891092623
H           -1.38063702543644       -4.86347019825634       -0.22209856482135
H           -3.09594959100367       -4.54891591459906        1.47586444259997
H           -1.51170093177226       -4.21657189595003        2.17568887766094
H           -2.59492272592967       -2.88331508820172        1.74949128661549
H           -3.51173184017689       -3.95669288046248       -1.03034127210416
H           -2.16643589525329       -3.29829490538797       -1.96459188914449
H           -2.95494462626813       -2.30701003336725       -0.73581141185311
H            1.64491360148938       -3.05215829968965       -0.23535650872265
H            0.43330569687607       -3.86318862694573       -2.35419229521777
H            0.20919723161161       -5.41382413620060       -1.54592544147409
H            1.83121837969536       -4.82457418501576       -1.85681387720036
H            2.10651837836509       -5.29420653325528        0.67059282254489
H            1.24204208231146       -4.31361353914676        1.85099276450660
H            0.39611991819854       -5.57802479018423        0.94899806439544
H            1.60727432542749       -1.81855904969593       -2.30869161093937
H            0.89203271100659       -1.40700600761365       -4.62574834112068
H           -0.87190436907358        0.27104354307625       -5.09715085091268
H           -3.22347888503237        1.34144485805764       -1.36967152594338
H           -2.84756238675258        3.06705912650597       -1.38900645608811
H           -2.90870939586530        1.63384227855181       -3.73471972829326
H           -1.67218311575363        2.85893257078178       -3.50805674272979
H            0.75975215580357        2.70919521497369       -0.55315794367906
H           -0.26455304753615        3.57848642350262       -1.70789341218815
H           -1.63984474957752        4.47592720219627        0.08684468925922
H           -0.08820148522419        4.41457060072505        0.90969305197828
H           -1.68760473526053        3.74855003563533        3.14206458055615
H           -2.46727641623322        1.70086077663500        4.30057472986234
H           -2.40691621260886       -0.46851595655470        3.14365888488195
H            3.84821800668511        0.27940992231437        0.39469579442220
H            4.08618121411359        2.68830587166471        0.07049087993977
72
 energy: -106.027205760916 gnorm: 0.008554124684 xtb: 6.7.1 (edcfbbe)
C            3.75533079294279        5.14859646515997        0.71037815996497
O            2.92351976003673        4.55451295913176        1.68367929978871
C            2.87712983395103        3.21259059182115        1.77648078281502
C            2.13144119973257        2.69650965794607        2.84472013610901
C            2.02263494906459        1.33926185507143        3.03217345085909
C            2.63272299430287        0.47712446145477        2.12998008705150
S            2.50248479191898       -1.28617837816244        2.33684084203171
S            0.49107797390675       -1.49147272093484        2.63081539252114
P           -0.27271353816866       -1.59021395340810        0.66253954911953
N           -0.42129116261493       -3.05799004864493       -0.04145552881153
C           -1.66916830220464       -3.83708581015176        0.04088765377848
C           -2.24933901093497       -3.86051963398066        1.44943426067831
C           -2.65902591238457       -3.30971772089114       -0.98958230376429
C            0.84438664800026       -3.79451149209956       -0.23669386404929
C            0.82919923383340       -4.50540241113816       -1.58847147289481
C            1.14774717013818       -4.77802102449047        0.88981172576003
O            0.73220996456633       -0.66202681787611       -0.13528195742633
C            0.35239471684297       -0.32733618185668       -1.47201051358204
C            0.88105133717323       -1.07606224703439       -2.51466498092757
C            0.47917316128432       -0.83770209088422       -3.81610564908269
C           -0.49371378736110        0.11438398045113       -4.08735531956603
C           -0.99503601371911        0.86741521376099       -3.04707730459083
C           -0.54751419771772        0.68513689562078       -1.73297050723121
C           -1.14864424630358        1.74367520896452       -0.85107198423771
C           -2.45332242808063        2.07137501844018       -1.62020621973280
C           -2.06504618549989        1.91575841621088       -3.09441392379908
C           -0.25276262078793        3.00472883018478       -0.77334843937226
C           -0.82303548122041        3.79310826294779        0.41252967358033
C           -1.36081741950369        2.71241411562325        1.30119799937030
C           -1.72716928403856        2.78902940852522        2.62796714416584
C           -2.14357287900586        1.63413547396085        3.27716198660721
C           -2.12892016509734        0.41577799728326        2.62325396447393
C           -1.77042547887698        0.35413691707840        1.28295304236024
C           -1.42708315364329        1.50196554732183        0.60358522713023
O           -1.69282865566400       -0.92426449137606        0.64633649082518
C            3.36711870330023        0.96659930928488        1.06535967997739
C            3.50079050389239        2.33189617588464        0.89203958787197
H            4.79746821732428        4.84211138502571        0.83669935348925
H            3.42379794491503        4.90692932356821       -0.30416719177243
H            3.67060548247744        6.22024586551644        0.87376278837147
H            1.66603041603025        3.39049708883509        3.52545105139746
H            1.46451383712895        0.94522027063832        3.86785640159090
H           -1.39393963310956       -4.85667497114600       -0.23412939784235
H           -3.09625764033250       -4.54110193697045        1.48186279188877
H           -1.50657279718161       -4.20211757204825        2.16708063430821
H           -2.59664849949523       -2.87405603811327        1.74177262770868
H           -3.53198594023338       -3.95417392258975       -1.02831437108402
H           -2.19629129031775       -3.29033819188861       -1.97282067581055
H           -2.97927453923782       -2.30477214794875       -0.73471643786454
H            1.63050905304769       -3.02868639718736       -0.23919054794859
H            0.43932694758729       -3.85278803838987       -2.36421000289179
H            0.21601732404549       -5.40143657162267       -1.55036113525749
H            1.83892128012333       -4.80584517789314       -1.85340757744705
H            2.09979527327999       -5.26124736806982        0.68669504195982
H            1.22015337320223       -4.27403679015564        1.85093851655135
H            0.38657999329893       -5.55068915269909        0.95360962891124
H            1.61677525876759       -1.83202017268465       -2.29513322177077
H            0.90549617063654       -1.41825833617959       -4.61837126730377
H           -0.85396843600544        0.26411294731758       -5.09265930382942
H           -3.21824617278346        1.33906546921000       -1.35720654826723
H           -2.83076454961040        3.06166086283053       -1.38060141169959
H           -2.90276916499261        1.61840319885046       -3.72365756048710
H           -1.66702424056734        2.84879157680256       -3.50066182549599
H            0.77273698138821        2.69966799784189       -0.55587798883211
H           -0.25988819138120        3.56681143679353       -1.70332262693280
H           -1.62563408133816        4.46336135057185        0.09567613813440
H           -0.07108026503323        4.39804360532950        0.91761297137652
H           -1.68434498722726        3.73019173792694        3.15264384661142
H           -2.45056812834783        1.67593226594453        4.30935765165430
H           -2.38763486264274       -0.49406875845662        3.14294153961983
H            3.84631432727735        0.28134170850825        0.38410190907671
H            4.08886672724677        2.69829471333416        0.06659103211327
72
 energy: -106.027712429830 gnorm: 0.008652369587 xtb: 6.7.1 (edcfbbe)
C            3.74658323928382        5.16002160020610        0.70600288196834
O            2.91174669064113        4.56133939245577        1.67495822449070
C            2.86740333190208        3.21683800060150        1.76387423010589
C            2.11762922783787        2.70153739359963        2.82902863295596
C            2.00714580270458        1.34331099850529        3.01521152776592
C            2.62124249409090        0.47934056793493        2.11674158207050
S            2.49238670934882       -1.28453406682020        2.32783182774890
S            0.48395193827377       -1.50984306766711        2.62882926834573
P           -0.28054976126973       -1.58331637642349        0.66119484301831
N           -0.43342309694969       -3.04454624165356       -0.05746399352490
C           -1.67823012442512       -3.82788404621105        0.03081568241958
C           -2.25119169377767       -3.85310038302873        1.44279536258631
C           -2.67972906226894       -3.30428581193265       -0.99182004225058
C            0.83395760035927       -3.77833078950944       -0.24395616212705
C            0.83191469133630       -4.49579541156676       -1.59214166661047
C            1.13612346931894       -4.75038262070836        0.89246061353855
O            0.73387990093048       -0.66401406321448       -0.12673465388360
C            0.36079675640342       -0.33425339637128       -1.46579968742186
C            0.89605952317449       -1.08364538196152       -2.50433125787667