71
 energy: -102.836239590945 gnorm: 0.130810558759 xtb: 6.7.1 (edcfbbe)
C           -1.09285200000000       -4.56662600000000        1.70061500000000
C           -0.99694500000000       -3.05604400000000        1.51408600000000
N           -1.88133900000000       -2.52670000000000        0.46813300000000
C           -3.29693100000000       -2.71275800000000        0.79315300000000
C           -3.92401300000000       -3.79827600000000       -0.07205300000000
P           -1.39643100000000       -1.24873200000000       -0.46108600000000
S           -2.79014200000000       -0.82756700000000       -1.98400600000000
S           -1.95265100000000        0.73526700000000       -3.01397200000000
C           -2.47884300000000        2.16881000000000       -2.10103200000000
C           -3.82972300000000        2.52645500000000       -2.03038300000000
C           -4.22232400000000        3.66280700000000       -1.31923300000000
C           -3.26588300000000        4.45188800000000       -0.68171800000000
C           -1.91727100000000        4.10869400000000       -0.75834700000000
C           -1.52523400000000        2.97343900000000       -1.47017900000000
N           -1.08993100000000        0.01457100000000        0.55299000000000
C           -2.27641200000000        0.63358700000000        1.13426800000000
C            0.07795800000000        0.06060700000000        1.36885900000000
C           -0.03117500000000        0.05629600000000        2.77367500000000
C            1.08643900000000        0.05832600000000        3.60001900000000
C            2.36356900000000        0.02752300000000        3.05426700000000
C            3.47652400000000       -0.03204700000000        3.91192200000000
C            4.77035000000000       -0.11004800000000        3.40569100000000
C            4.96272100000000       -0.14246700000000        2.03460200000000
C            3.86054000000000       -0.07655100000000        1.17704200000000
C            2.52500800000000        0.04136200000000        1.64659800000000
C            1.36990900000000        0.12987600000000        0.77543500000000
C            1.50845000000000        0.32993200000000       -0.64008500000000
C            0.95061500000000       -0.61086800000000       -1.54820500000000
C            1.27097300000000       -0.52062800000000       -2.91593600000000
C            2.06111100000000        0.50732700000000       -3.41777400000000
C            2.53572900000000        1.50550400000000       -2.57501500000000
C            3.27446200000000        2.57180200000000       -3.11734300000000
C            3.72924900000000        3.61285100000000       -2.31362300000000
C            3.43940900000000        3.60343200000000       -0.95904800000000
C            2.71144600000000        2.54276100000000       -0.41232300000000
C            2.25616500000000        1.44321500000000       -1.18735800000000
N            0.09215700000000       -1.63826200000000       -1.06480800000000
C            0.11374700000000       -2.88243300000000       -1.82960500000000
H           -0.93132400000000       -5.09408800000000        0.75514600000000
H           -2.06250400000000       -4.86844400000000        2.10720800000000
H           -0.32474200000000       -4.90280200000000        2.40508800000000
H           -1.19692700000000       -2.55763300000000        2.46886100000000
H            0.04713800000000       -2.84164000000000        1.26393100000000
H           -3.84966800000000       -1.77953500000000        0.64180000000000
H           -3.44845400000000       -2.95821200000000        1.85147600000000
H           -3.45913000000000       -4.77319600000000        0.10134600000000
H           -3.83701800000000       -3.56986100000000       -1.13813500000000
H           -4.98942100000000       -3.89206900000000        0.16208300000000
H           -4.58397900000000        1.92301900000000       -2.52943600000000
H           -5.27352900000000        3.93378900000000       -1.26802000000000
H           -3.57003700000000        5.33778600000000       -0.13036200000000
H           -1.16641200000000        4.72154700000000       -0.26642200000000
H           -0.46998700000000        2.71504700000000       -1.51858200000000
H           -3.05203100000000        0.79748700000000        0.38395700000000
H           -2.72222500000000        0.00550600000000        1.91264900000000
H           -2.04583400000000        1.61819000000000        1.55770100000000
H           -1.00069200000000        0.01578900000000        3.25980800000000
H            0.94024400000000        0.04485500000000        4.67746500000000
H            3.34065200000000       -0.03004700000000        4.99147600000000
H            5.62026800000000       -0.16120100000000        4.08011300000000
H            5.96454300000000       -0.22406600000000        1.62171600000000
H            4.06130800000000       -0.13324200000000        0.10839800000000
H            0.87062100000000       -1.23095200000000       -3.63302100000000
H            2.26055700000000        0.53778800000000       -4.48639000000000
H            3.49239500000000        2.60428100000000       -4.18306600000000
H            4.29465200000000        4.43240600000000       -2.74800900000000
H            3.77203200000000        4.41734900000000       -0.32071000000000
H            2.48649300000000        2.59171900000000        0.65190200000000
H           -0.30292700000000       -3.70967800000000       -1.24857800000000
H            1.13928400000000       -3.18049900000000       -2.07817500000000
H           -0.47177500000000       -2.80572200000000       -2.75173800000000
71
 energy: -102.853947449668 gnorm: 0.057452585697 xtb: 6.7.1 (edcfbbe)
C           -1.09510648813358       -4.56828865437637        1.69348873241499
C           -0.98096753423215       -3.05975596868279        1.51203605686403
N           -1.87805988024034       -2.53895048133075        0.47623611958758
C           -3.30572364536109       -2.71280550209948        0.76735320680347
C           -3.93349625081918       -3.80583342098881       -0.08318187840306
P           -1.35304312955076       -1.24868123804906       -0.42599903284663
S           -2.81984523071279       -0.81763860696028       -1.90536946913803
S           -1.93923114321811        0.72140632333261       -2.96258497062182
C           -2.48058950785956        2.17486745884183       -2.08190904212642
C           -3.82589002883102        2.52538518395403       -2.02658095768644
C           -4.21338672423043        3.65552188528327       -1.32255782088870
C           -3.26156011359295        4.44235268384786       -0.68880268572444
C           -1.91856877603044        4.10144320079202       -0.76307723775725
C           -1.52496214619770        2.96813024371667       -1.45831849956896
N           -1.06666416639817        0.05506232852110        0.56006391319492
C           -2.27243118816027        0.64881528271991        1.13377459322117
C            0.10381448633162        0.07625922007007        1.37654406775446
C           -0.02832660534994        0.04571497028889        2.77444749323093
C            1.07086263989925        0.05493226852482        3.59557318277949
C            2.36296444345448        0.02974986917866        3.05630136586179
C            3.48154299614571       -0.03273263364714        3.90827892111072
C            4.75511698592111       -0.10809418652556        3.39740080711130
C            4.93613620314872       -0.13975136471092        2.01535114429207
C            3.85251936979860       -0.06537117723309        1.16198256238996
C            2.52903971844169        0.05150881918586        1.64401072499921
C            1.37442190931540        0.14457328595086        0.79024844311445
C            1.52081707672628        0.32905825959457       -0.65038753036583
C            0.96226561573153       -0.59232676502956       -1.54762650764125
C            1.25330116904953       -0.50685395522094       -2.91900308757465
C            2.04449447706904        0.49717423636294       -3.41876797666415
C            2.53462431090666        1.50421785181280       -2.57733257376944
C            3.27449758562219        2.57532505267826       -3.11277600984639
C            3.72066665874185        3.59753671793586       -2.30947002510712
C            3.42269897607781        3.57731089431199       -0.94743104999781
C            2.71087288151012        2.52829680880268       -0.39906961637545
C            2.26254139198285        1.44065436731478       -1.18277702959426
N            0.12490901602812       -1.64319015413945       -1.05628930221590
C            0.11869327680299       -2.88635218828886       -1.82693369595498
H           -0.93492845580682       -5.09102725494035        0.75228119072389
H           -2.06155586809898       -4.86356841495173        2.09799129938608
H           -0.32900900942932       -4.89330348768290        2.39625844210999
H           -1.19503518563622       -2.56317589053844        2.46583796684193
H            0.05199174074924       -2.81760206477477        1.24264616184215
H           -3.84913785160675       -1.77455421640483        0.60480997126107
H           -3.42765121096020       -2.95830436453303        1.82764409314787
H           -3.45982384941415       -4.76851607515671        0.09865939802483
H           -3.83625518849429       -3.56637824411263       -1.14098364699916
H           -4.99238858514476       -3.89428749613610        0.15499470586032
H           -4.57125658188427        1.91841095854489       -2.52428642600915
H           -5.25939266293050        3.92460879164421       -1.27437424727054
H           -3.56594369422399        5.32415354087445       -0.14113253327133
H           -1.17199365199533        4.71392984581194       -0.27718071749958
H           -0.47566499789217        2.70831453945078       -1.51855105872580
H           -3.03300558184295        0.79697184865272        0.36252007995628
H           -2.71673280498152        0.02475897933186        1.91652949274581
H           -2.03386184254012        1.62600440153043        1.55462110040299
H           -1.00266973245064        0.02136394945463        3.24142757089098
H            0.92898005356657        0.05293134217769        4.66735362189897
H            3.33723423300066       -0.03239996582296        4.98039576172503
H            5.60544148193456       -0.15805541211127        4.06478617368847
H            5.93345695120431       -0.22507422420434        1.60550211355404
H            4.04065572504515       -0.11661899149104        0.09752593483401
H            0.86225982176188       -1.23361488563198       -3.61661886771755
H            2.25863294489535        0.52230404225655       -4.47810102219892
H            3.48577713464370        2.60082329022652       -4.17339226381073
H            4.28565976370520        4.41579249415290       -2.73648631744886
H            3.75109179261529        4.38982714979005       -0.31331153149238
H            2.48531516550721        2.56442700209683        0.65892030592174
H           -0.30732322581172       -3.69306350710757       -1.22695106514828
H            1.14389823362263       -3.16292307829678       -2.07695539987524
H           -0.46571169089399       -2.81082951783831       -2.74952262221060
71
 energy: -102.859964196224 gnorm: 0.013780495662 xtb: 6.7.1 (edcfbbe)
C           -1.08472532935813       -4.57014120195131        1.68667716604027
C           -0.97278355197809       -3.06217769576757        1.51188960948725
N           -1.87911410729144       -2.54681891044541        0.48134785426028
C           -3.31399524807976       -2.71203091955087        0.74694399602467
C           -3.93503274437701       -3.81032574431553       -0.10151678151517
P           -1.32082096700412       -1.24413384242126       -0.39054494045379
S           -2.81034085876113       -0.81194709395626       -1.82867306160588
S           -1.92801714274586        0.69960016763143       -2.91598186188524
C           -2.47721118060117        2.16928103589774       -2.05663622502893
C           -3.82004168993475        2.51254584802985       -2.01717592488876
C           -4.20497284460509        3.64606847327763       -1.32530789944764
C           -3.25605722344601        4.43441308528150       -0.69419044088878
C           -1.91462382866688        4.09693008343419       -0.76509948157303
C           -1.51750596461313        2.96065816222108       -1.44621191141809
N           -1.05038423047378        0.10574794694701        0.55617906704352
C           -2.26693275560185        0.67892630479571        1.13012617909088
C            0.12013765825277        0.09485139284338        1.37937713319328
C           -0.03046291670840        0.04896281785743        2.77597420782872
C            1.05842658465117        0.05515646000966        3.59263922402351
C            2.35938659918323        0.03264000045916        3.05512688838851
C            3.48518145329281       -0.03246198588264        3.89989922240278
C            4.74428242932470       -0.10550560706877        3.38027327486321
C            4.91453641140846       -0.13269038003891        1.98872353221900
C            3.84154894158460       -0.05249619262625        1.14259426480462
C            2.52626392237446        0.05848511684851        1.64090338242499
C            1.37166571742248        0.15573223218533        0.80167528016832
C            1.52230028276651        0.32657180835593       -0.65912740373990
C            0.96752865566024       -0.58045888820451       -1.54236369232917
C            1.24031721693875       -0.50497789365442       -2.91913866158556
C            2.02802771868295        0.48711060293048       -3.41838859821664
C            2.52843687879317        1.49985467987201       -2.57743710512125
C            3.27164519399083        2.57515753923154       -3.10470447890522
C            3.71168627157217        3.58287452182367       -2.29698878223489
C            3.40954797382653        3.55135569554977       -0.92801087890002
C            2.70818893649267        2.51009725044075       -0.38270674082431
C            2.25987417086208        1.43558202436762       -1.18028789196803
N            0.14470928113281       -1.64815216767516       -1.04393328544401
C            0.12354317567036       -2.89215438185642       -1.81646460578155
H           -0.93070352581880       -5.08683106937859        0.74462097415983
H           -2.05299874852353       -4.85322715666124        2.08699615779447
H           -0.32274886687520       -4.89585032440431        2.38883647532416
H           -1.18614935485695       -2.57298890040906        2.47080994195814
H            0.04952259501282       -2.79939436815102        1.22249027529179
H           -3.84336384286834       -1.77130848487118        0.56040772625910
H           -3.42439760673328       -2.94891467829903        1.80891411479185
H           -3.45894526536306       -4.76619656397212        0.08859317763337
H           -3.83490739122891       -3.56927182206428       -1.15581540631040
H           -4.98995859886477       -3.89412928156987        0.13889785783463
H           -4.55564767806987        1.90081717238916       -2.51729560889898
H           -5.24821128028929        3.91580650438580       -1.28336646607529
H           -3.56232549608622        5.31553376143193       -0.15267632579634
H           -1.17196594732056        4.71373269336962       -0.28504362597203
H           -0.47385029486772        2.69230441756006       -1.50905804140277
H           -3.01123519211501        0.81421485281367        0.34266781602395
H           -2.71170070633159        0.05372431387061        1.91096765183271
H           -2.02491692028678        1.65198117247638        1.55017332782592
H           -1.01111591340888        0.02493023051161        3.22227580004896
H            0.92837383186961        0.05247409976890        4.66289876030975
H            3.33103343601064       -0.03435376848976        4.96788097810447
H            5.59963893994006       -0.15707446944727        4.03626693913670
H            5.90956794007613       -0.22418718012281        1.58179461194904
H            4.01128940522216       -0.09164313665446        0.07803939018095
H            0.83542165446221       -1.23549903384973       -3.59938890635086
H            2.25170194081993        0.51819674203750       -4.47239970872498
H            3.47575396855367        2.59280030325003       -4.16398232221140
H            4.27575475218685        4.40400414045695       -2.71215018303815
H            3.73308272792475        4.36566562610322       -0.29816814985828
H            2.48262093220140        2.52549000321481        0.67228759293798
H           -0.31103640204269       -3.67945830095943       -1.20158800300926
H            1.14859199279685       -3.15771375483803       -2.06633922967064
H           -0.46038597476244       -2.81576808437410       -2.73830422058657
71
 energy: -102.861568596087 gnorm: 0.012778251585 xtb: 6.7.1 (edcfbbe)
C           -1.07464722492861       -4.56962374125594        1.67795012778131
C           -0.96809293008246       -3.06023855025897        1.51152909658145
N           -1.87797811456886       -2.54353641316507        0.48339102544866
C           -3.31550517094078       -2.71034838995480        0.73423883989105
C           -3.92833749024056       -3.81234286237058       -0.11720147931761
P           -1.31549816388899       -1.23507296991571       -0.37421145274922
S           -2.82504487303288       -0.82444012307121       -1.79072887062714
S           -1.90861582586287        0.66930364858370       -2.87284277997940
C           -2.46295439898656        2.15286480111160       -2.03459763967213
C           -3.80681048760595        2.49291315964726       -2.00775250527306
C           -4.19554257715633        3.63395007380928       -1.32828366424864
C           -3.24920988041957        4.42920063900111       -0.70102819511548
C           -1.90633057057361        4.09397772039685       -0.76309486321683
C           -1.50444877231492        2.94970321016961       -1.42984418077136
N           -1.04888479676139        0.13789628638958        0.54794968062984
C           -2.26327401328332        0.71384831707684        1.12132045464324
C            0.11694610711934        0.10792901433235        1.38065879233606
C           -0.03646517900704        0.05667062083289        2.77853904733654
C            1.05488932815296        0.05435067403378        3.59242553788843
C            2.35586313136884        0.03280407005062        3.05090446157027
C            3.48723081797364       -0.03346123659978        3.88920425711116
C            4.74295721573032       -0.10549380559212        3.36005767977432
C            4.90740306114592       -0.12806184417132        1.96598131149902
C            3.83136492597191       -0.04406891138181        1.12663877631259
C            2.52001914928173        0.06087286150629        1.63801078480547
C            1.36514356498129        0.15960830138452        0.80432721321950
C            1.51533981312375        0.32515570838947       -0.66004062149578
C            0.96168759911810       -0.58018794506819       -1.53817571377224
C            1.22647662003988       -0.50645610676996       -2.91823570731941
C            2.01478772507237        0.48563149279091       -3.41716728507162
C            2.51981800744425        1.49663816654872       -2.57435140613754
C            3.26558912785999        2.57387192422662       -3.09559196240193
C            3.70469228193476        3.57679807350953       -2.28068587884547
C            3.40298372433184        3.54001017668492       -0.90997739179064
C            2.70308372612693        2.49723332915786       -0.37008116226940
C            2.25301265116211        1.43125987739172       -1.17872195397524
N            0.14322422210853       -1.64871800602702       -1.03360996323888
C            0.12300848689072       -2.89727656827477       -1.79850431122282
H           -0.92070131135724       -5.08124712386893        0.73275803023010
H           -2.04448428168743       -4.85276244191381        2.07527384139145
H           -0.31362365612698       -4.89976690791371        2.37891575859361
H           -1.17814058533017       -2.57920934065225        2.47537993084380
H            0.05040825365878       -2.78873427449648        1.21658626105981
H           -3.84004745110469       -1.77168182427708        0.52785707018501
H           -3.43957400221733       -2.93924914198557        1.79527959207339
H           -3.45239564925607       -4.76751770226412        0.07669893666764
H           -3.82471412377283       -3.57307758640672       -1.17161760140206
H           -4.98494405195588       -3.89685721699070        0.11741465193797
H           -4.53698416028681        1.87265746264518       -2.50516694719054
H           -5.23918040156884        3.90457801823020       -1.29417093864981
H           -3.55924676179118        5.31468638339824       -0.16884010055215
H           -1.16669607157342        4.71981917255765       -0.28925015780347
H           -0.46187686104221        2.67781609227775       -1.48894783182277
H           -3.00068312862344        0.85214757477167        0.33034214239911
H           -2.71258482086836        0.09073910446309        1.90047322491639
H           -2.01652944836450        1.68608912250200        1.54151422780492
H           -1.02035857829038        0.03461769860811        3.21684836331689
H            0.93352042292870        0.04756980744775        4.66421806400448
H            3.33292711718502       -0.03643952658710        4.95751942605830
H            5.60467134560685       -0.15768243258281        4.00694535972386
H            5.90166611079036       -0.21710548614836        1.55685604056692
H            3.98652140138652       -0.07170570285607        0.05898923653384
H            0.81130098515274       -1.23756861048191       -3.59124159754488
H            2.24046640196263        0.52268584535175       -4.47096859117695
H            3.46860869154593        2.59066639413837       -4.15547948460410
H            4.27085228006595        4.40057296621108       -2.68645026977397
H            3.72922813155132        4.35188378757833       -0.27858707006191
H            2.47828582825230        2.49567940224654        0.68561692988649
H           -0.31304487274589       -3.67722331342555       -1.17739870400438
H            1.14902244265313       -3.16270648737594       -2.04500437523497
H           -0.45954801206035       -2.82484238534942       -2.72105851668963
71
 energy: -102.862736038798 gnorm: 0.009752909365 xtb: 6.7.1 (edcfbbe)
C           -1.06160198100633       -4.57239467916370        1.66706500186090
C           -0.96379044144329       -3.06081095731632        1.51694319720474
N           -1.87605620521036       -2.54020587533498        0.49229339357911
C           -3.31534762541460       -2.71213376869864        0.72454024264599
C           -3.91367030465491       -3.81751841910928       -0.13512556918550
P           -1.32076844564305       -1.22591588642299       -0.35233564191962
S           -2.81772761339529       -0.82095496192969       -1.76885939728624
S           -1.88354517853464        0.65520234293338       -2.85806241588739
C           -2.44076484673249        2.13285406097909       -2.01224668807671
C           -3.78630070169164        2.46569407632298       -1.99339900090431
C           -4.18094258551762        3.61523414210982       -1.32974788828364
C           -3.23790212521400        4.42147382699472       -0.71055239274022
C           -1.89319408790995        4.08910904591463       -0.76076281565954
C           -1.48511315864812        2.93639935262530       -1.41120882466222
N           -1.05346235542113        0.17070856729044        0.53954464024285
C           -2.26047354864314        0.76361825061048        1.10821691289033
C            0.10616853963023        0.12039749923981        1.38340326177540
C           -0.04418498672194        0.06647340369628        2.78248503761762
C            1.05320326953470        0.05127860961062        3.59106718765403
C            2.35198155811326        0.02824194385464        3.04314722712118
C            3.49069090436765       -0.03797346915906        3.87255838362447
C            4.74300245943958       -0.10651616898232        3.33122383646592
C            4.90087753044226       -0.12246103746811        1.93608573254566
C            3.81779746524551       -0.03831804944329        1.10586525756223
C            2.51088820051433        0.05873374402149        1.63225724406132
C            1.35397451071168        0.16054260331800        0.80506207338724
C            1.50001431454504        0.32479832518612       -0.65809804470629
C            0.94582313335069       -0.58148938106275       -1.53306822486185
C            1.20606127088501       -0.50709175885275       -2.91523452317450
C            1.99423714280954        0.48754295849050       -3.41337243503131
C            2.50379562099135        1.49519692060502       -2.56849241224560
C            3.25414538317597        2.57327552854696       -3.08257026553164
C            3.69546329633044        3.57007546884774       -2.25903556351823
C            3.39654600720194        3.52860014256088       -0.88769876538039
C            2.69293372446362        2.48464918650983       -0.35518624538413
C            2.23907299669186        1.42832475689207       -1.17530192342136
N            0.12988535006246       -1.64679970722115       -1.01991134467746
C            0.11765039700523       -2.90362824081195       -1.76982268075543
H           -0.90400114007980       -5.07393905913631        0.71609896716485
H           -2.03236448972461       -4.86212200086369        2.05903493509887
H           -0.30039376883146       -4.90803269116235        2.36560296556904
H           -1.17273887646497       -2.59093250485956        2.48628987922447
H            0.05164935346631       -2.77886172379836        1.22057288809695
H           -3.83628007336237       -1.77668639917175        0.49636792720512
H           -3.46262656450876       -2.93233283119062        1.78395197941768
H           -3.43796586341910       -4.77265644282589        0.06173650417119
H           -3.80219033937628       -3.57843754801274       -1.18947257449010
H           -4.97371010489374       -3.90525753027702        0.08734431218120
H           -4.51058790979047        1.83478651895776       -2.48667599361528
H           -5.22541566891607        3.88587252956050       -1.30561734630030
H           -3.55283713102022        5.31457427502294       -0.19292279234534
H           -1.15770933000010        4.72540284471841       -0.29291213497943
H           -0.44272378982632        2.66129321653893       -1.46186215372064
H           -2.99176030554744        0.91392568467944        0.31549617834883
H           -2.72058038122335        0.14900870741533        1.88728252064043
H           -2.00097458297089        1.73455414605414        1.52680530998863
H           -1.02985610163109        0.05113369600466        3.21714754039609
H            0.94083204042752        0.03872429191837        4.66463967858214
H            3.34241378504617       -0.04117348343582        4.94225457989724
H            5.61264623755975       -0.15921475532553        3.96750206035202
H            5.89382667698612       -0.20480286781989        1.52164568981471
H            3.95638085112480       -0.05476613515520        0.03519852184769
H            0.78197645495677       -1.23803479975511       -3.58296398773269
H            2.21786854156622        0.53123224997307       -4.46811507566284
H            3.45878208643241        2.59271641282955       -4.14267293652316
H            4.26468339796754        4.39645890120147       -2.65502632753458
H            3.72862729118515        4.33557455339662       -0.25266849796567
H            2.46752466540632        2.46646158239375        0.70058275291495
H           -0.31657544204669       -3.67821001106871       -1.14225325550192
H            1.14621025408774       -3.16837856454220       -2.00942507371204
H           -0.46149465628766       -2.84209665844809       -2.69492960777473
71
 energy: -102.863311507784 gnorm: 0.006448717331 xtb: 6.7.1 (edcfbbe)
C           -1.05214070171823       -4.57548378186513        1.65748162774381
C           -0.96432184246135       -3.06167879471972        1.52401887745340
N           -1.87530204172431       -2.53458750728181        0.50120484724842
C           -3.31488551283525       -2.71483439909550        0.71926933768022
C           -3.89634782175492       -3.82388026992325       -0.14861635762742
P           -1.33177547952594       -1.21757733467320       -0.33912828249543
S           -2.83125912995252       -0.83659669610791       -1.76446814327187
S           -1.86376477660437        0.63480355638842       -2.83248562025407
C           -2.41658615554391        2.12489967339611       -2.00604490483577
C           -3.76410632076651        2.44947110411834       -1.98738907666152
C           -4.16496859612658        3.60134298264868       -1.33189190893575
C           -3.22493973337155        4.41674930944407       -0.71971715109358
C           -1.87897048009331        4.08683499324177       -0.76016430196958
C           -1.46499679121132        2.93196246245993       -1.40294002250745
N           -1.06014979879911        0.18979353135681        0.53435633402344
C           -2.25809374624683        0.80681135114624        1.09658830920164
C            0.09440251927548        0.12659829057842        1.38609711523180
C           -0.04974808640971        0.07247564448577        2.78555063936530
C            1.05319618134814        0.04631551311588        3.58893929120048
C            2.34924035028601        0.01973793385618        3.03585909229016
C            3.49385009133579       -0.04565475707690        3.85781386548132
C            4.74344767542276       -0.10880301576735        3.30752603442828
C            4.89601768543513       -0.12012067075413        1.91256093215583
C            3.80629332283569       -0.04032045266606        1.08975486008970