      -----------------------------------------------------------      
     |                   =====================                   |     
     |                           x T B                           |     
     |                   =====================                   |     
     |                         S. Grimme                         |     
     |          Mulliken Center for Theoretical Chemistry        |     
     |                    University of Bonn                     |     
      -----------------------------------------------------------      

   * xtb version 6.7.1 (edcfbbe) compiled by 'conda@3ef47c1a292c' on 2024-11-25

   xtb is free software: you can redistribute it and/or modify it under
   the terms of the GNU Lesser General Public License as published by
   the Free Software Foundation, either version 3 of the License, or
   (at your option) any later version.
   
   xtb is distributed in the hope that it will be useful,
   but WITHOUT ANY WARRANTY; without even the implied warranty of
   MERCHANTABILITY or FITNESS FOR A PARTICULAR PURPOSE.  See the
   GNU Lesser General Public License for more details.
   
   Cite this work as:
   * C. Bannwarth, E. Caldeweyher, S. Ehlert, A. Hansen, P. Pracht,
     J. Seibert, S. Spicher, S. Grimme, WIREs Comput. Mol. Sci., 2020, 11,
     e01493. DOI: 10.1002/wcms.1493
   
   for GFN2-xTB:
   * C. Bannwarth, S. Ehlert and S. Grimme., J. Chem. Theory Comput., 2019,
     15, 1652-1671. DOI: 10.1021/acs.jctc.8b01176
   for GFN1-xTB:
   * S. Grimme, C. Bannwarth, P. Shushkov, J. Chem. Theory Comput., 2017,
     13, 1989-2009. DOI: 10.1021/acs.jctc.7b00118
   for GFN0-xTB:
   * P. Pracht, E. Caldeweyher, S. Ehlert, S. Grimme, ChemRxiv, 2019, preprint.
     DOI: 10.26434/chemrxiv.8326202.v1
   for GFN-FF:
   * S. Spicher and S. Grimme, Angew. Chem. Int. Ed., 2020, 59, 15665-15673.
     DOI: 10.1002/anie.202004239
   
   for ALPB and GBSA implicit solvation:
   * S. Ehlert, M. Stahn, S. Spicher, S. Grimme, J. Chem. Theory Comput.,
     2021, 17, 4250-4261. DOI: 10.1021/acs.jctc.1c00471
   
   for ddCOSMO and CPCM-X implicit solvation:
   * M. Stahn, S. Ehlert, S. Grimme, J. Phys. Chem. A,
     2023, XX, XXXX-XXXX. DOI: 10.1021/acs.jpca.3c04382
   
   for DFT-D4:
   * E. Caldeweyher, C. Bannwarth and S. Grimme, J. Chem. Phys., 2017,
     147, 034112. DOI: 10.1063/1.4993215
   * E. Caldeweyher, S. Ehlert, A. Hansen, H. Neugebauer, S. Spicher,
     C. Bannwarth and S. Grimme, J. Chem. Phys., 2019, 150, 154122.
     DOI: 10.1063/1.5090222
   * E. Caldeweyher, J.-M. Mewes, S. Ehlert and S. Grimme, Phys. Chem. Chem. Phys.
     2020, 22, 8499-8512. DOI: 10.1039/D0CP00502A
   
   for sTDA-xTB:
   * S. Grimme and C. Bannwarth, J. Chem. Phys., 2016, 145, 054103.
     DOI: 10.1063/1.4959605
   
   in the mass-spec context:
   * V. Asgeirsson, C. Bauer and S. Grimme, Chem. Sci., 2017, 8, 4879.
     DOI: 10.1039/c7sc00601b
   * J. Koopman and S. Grimme, ACS Omega 2019, 4, 12, 15120-15133.
     DOI: 10.1021/acsomega.9b02011
   
   for metadynamics refer to:
   * S. Grimme, J. Chem. Theory Comput., 2019, 155, 2847-2862
     DOI: 10.1021/acs.jctc.9b00143
   
   for SPH calculations refer to:
   * S. Spicher and S. Grimme, J. Chem. Theory Comput., 2021, 17, 1701-1714
     DOI: 10.1021/acs.jctc.0c01306
   
   for ONIOM refer to:
   * C. Plett, A. Katbashev, S. Ehlert, S. Grimme, M. Bursch,
     Phys. Chem. Chem. Phys., 2023, 25, 17860-17868. DOI: 10.1039/D3CP02178E
   
   for DIPRO refer to:
   * J. Kohn, N. Gildemeister, S. Grimme, D. Fazzi, A. Hansen,
     J. Chem. Phys., 2023, just accepted.
   
   for PTB refer to:
   * S. Grimme, M. Mueller, A. Hansen, J. Chem. Phys., 2023, 158, 124111.
     DOI: 10.1063/5.0137838
   
   with help from (in alphabetical order)
   P. Atkinson, C. Bannwarth, F. Bohle, G. Brandenburg, E. Caldeweyher
   M. Checinski, S. Dohm, S. Ehlert, S. Ehrlich, I. Gerasimov, C. Hölzer
   A. Katbashev, J. Kohn, J. Koopman, C. Lavigne, S. Lehtola, F. März, M. Müller,
   F. Musil, H. Neugebauer, J. Pisarek, C. Plett, P. Pracht, F. Pultar,
   J. Seibert, P. Shushkov, S. Spicher, M. Stahn, M. Steiner, T. Strunk,
   J. Stückrath, T. Rose, and J. Unsleber
   
 * started run on 2024/12/16 at 21:13:30.225     
   ID    Z sym.   atoms
    1    6 C      1, 3-8, 13-19, 21-39
    2    8 O      2, 20, 40
    3   16 S      9, 10
    4   15 P      11
    5    7 N      12
    6    1 H      41-81

           -------------------------------------------------
          |                Calculation Setup                |
           -------------------------------------------------

          program call               : xtb --gfn2 --opt extreme -P 8 --charge 1 molecule.xyz
          hostname                   : node05
          coordinate file            : molecule.xyz
          omp threads                :                     8


           -------------------------------------------------
          |                 G F N 2 - x T B                 |
           -------------------------------------------------

        Reference                      10.1021/acs.jctc.8b01176
      * Hamiltonian:
        H0-scaling (s, p, d)           1.850000    2.230000    2.230000
        zeta-weighting                 0.500000
      * Dispersion:
        s8                             2.700000
        a1                             0.520000
        a2                             5.000000
        s9                             5.000000
      * Repulsion:
        kExp                           1.500000    1.000000
        rExp                           1.000000
      * Coulomb:
        alpha                          2.000000
        third order                    shell-resolved
        anisotropic                    true
        a3                             3.000000
        a5                             4.000000
        cn-shift                       1.200000
        cn-exp                         4.000000
        max-rad                        5.000000


          ...................................................
          :                      SETUP                      :
          :.................................................:
          :  # basis functions                 219          :
          :  # atomic orbitals                 216          :
          :  # shells                          124          :
          :  # electrons                       212          :
          :  max. iterations                   250          :
          :  Hamiltonian                  GFN2-xTB          :
          :  restarted?                      false          :
          :  GBSA solvation                  false          :
          :  PC potential                    false          :
          :  electronic temp.          300.0000000     K    :
          :  accuracy                    1.0000000          :
          :  -> integral cutoff          0.2500000E+02      :
          :  -> integral neglect         0.1000000E-07      :
          :  -> SCF convergence          0.1000000E-05 Eh   :
          :  -> wf. convergence          0.1000000E-03 e    :
          :  Broyden damping             0.4000000          :
          :  net charge                          1          :
          :  unpaired electrons                  0          :
          ...................................................

 iter      E             dE          RMSdq      gap      omega  full diag
   1   -116.8990699 -0.116899E+03  0.440E+00    2.76       0.0  T
   2   -117.0457921 -0.146722E+00  0.254E+00    2.77       1.0  T
   3   -117.0539944 -0.820223E-02  0.109E+00    2.59       1.0  T
   4   -117.0677523 -0.137580E-01  0.414E-01    2.34       1.0  T
   5   -117.0705020 -0.274971E-02  0.191E-01    2.39       1.0  T
   6   -117.0717467 -0.124463E-02  0.700E-02    2.39       1.0  T
   7   -117.0718124 -0.656904E-04  0.324E-02    2.40       1.0  T
   8   -117.0718289 -0.165463E-04  0.153E-02    2.41       1.0  T
   9   -117.0718340 -0.509626E-05  0.791E-03    2.41       1.4  T
  10   -117.0718349 -0.927266E-06  0.334E-03    2.41       3.3  T
  11   -117.0718351 -0.176423E-06  0.181E-03    2.41       6.1  T
  12   -117.0718351 -0.251248E-07  0.963E-04    2.41      11.5  T
  13   -117.0718352 -0.188470E-07  0.497E-04    2.41      22.3  T

   *** convergence criteria satisfied after 13 iterations ***

         #    Occupation            Energy/Eh            Energy/eV
      -------------------------------------------------------------
         1        2.0000           -0.8674263             -23.6039
       ...           ...                  ...                  ...
       100        2.0000           -0.5087140             -13.8428
       101        2.0000           -0.5007842             -13.6270
       102        2.0000           -0.4900903             -13.3360
       103        2.0000           -0.4889833             -13.3059
       104        2.0000           -0.4826176             -13.1327
       105        2.0000           -0.4798800             -13.0582
       106        2.0000           -0.4739764             -12.8976 (HOMO)
       107                         -0.3855842             -10.4923 (LUMO)
       108                         -0.3589222              -9.7668
       109                         -0.3330025              -9.0615
       110                         -0.3311606              -9.0113
       111                         -0.3263538              -8.8805
       ...                                ...                  ...
       216                          0.9842557              26.7830
      -------------------------------------------------------------
                  HL-Gap            0.0883922 Eh            2.4053 eV
             Fermi-level           -0.4297803 Eh          -11.6949 eV

 SCC (total)                   0 d,  0 h,  0 min,  2.265 sec
 SCC setup                      ...        0 min,  0.000 sec (  0.017%)
 Dispersion                     ...        0 min,  0.001 sec (  0.062%)
 classical contributions        ...        0 min,  0.000 sec (  0.005%)
 integral evaluation            ...        0 min,  0.008 sec (  0.333%)
 iterations                     ...        0 min,  2.085 sec ( 92.047%)
 molecular gradient             ...        0 min,  0.170 sec (  7.499%)
 printout                       ...        0 min,  0.001 sec (  0.037%)

         :::::::::::::::::::::::::::::::::::::::::::::::::::::
         ::                     SUMMARY                     ::
         :::::::::::::::::::::::::::::::::::::::::::::::::::::
         :: total energy            -115.498636276107 Eh    ::
         :: gradient norm              0.112836070181 Eh/a0 ::
         :: HOMO-LUMO gap              2.405273571825 eV    ::
         ::.................................................::
         :: SCC energy              -117.065097500692 Eh    ::
         :: -> isotropic ES            0.116238161781 Eh    ::
         :: -> anisotropic ES          0.003045039714 Eh    ::
         :: -> anisotropic XC          0.055922535794 Eh    ::
         :: -> dispersion             -0.119642039529 Eh    ::
         :: repulsion energy           1.566461224585 Eh    ::
         :: add. restraining           0.000000000000 Eh    ::
         :: total charge               1.000000000000 e     ::
         :::::::::::::::::::::::::::::::::::::::::::::::::::::

      ----------------------------------------------------------- 
     |                   =====================                   |
     |                        A N C O P T                        |
     |                   =====================                   |
     |               Approximate Normal Coordinate               |
     |                Rational Function Optimizer                |
      ----------------------------------------------------------- 
      ----------------------------------------------------------- 
     |                   =====================                   |
     |                        A N C O P T                        |
     |                   =====================                   |
     |               Approximate Normal Coordinate               |
     |                Rational Function Optimizer                |
      ----------------------------------------------------------- 

          ...................................................
          :                      SETUP                      :
          :.................................................:
          :   optimization level           extreme          :
          :   max. optcycles                  1620          :
          :   ANC micro-cycles                  20          :
          :   degrees of freedom               237          :
          :.................................................:
          :   RF solver                   davidson          :
          :   write xtbopt.log                true          :
          :   linear?                        false          :
          :   energy convergence         0.5000000E-07 Eh   :
          :   grad. convergence          0.5000000E-04 Eh/α :
          :   maxmium RF displ.          1.0000000          :
          :   Hlow (freq-cutoff)         0.1000000E-01      :
          :   Hmax (freq-cutoff)         5.0000000          :
          :   S6 in model hess.         20.0000000          :
          ...................................................

generating ANC from exact Hessian ...
Using Lindh-Hessian (1995)
 Shifting diagonal of input Hessian by    9.9070377607815858E-003
 Lowest  eigenvalues of input Hessian
    0.000000    0.000000    0.000000    0.000000    0.000000    0.000000
    0.010000    0.010046    0.010092    0.010279    0.010362    0.010377
    0.010500    0.010735    0.011126    0.011389    0.011619    0.011761
 Highest eigenvalues
    1.940566    1.981550    2.009433    2.009684    2.087144    2.097645


........................................................................
.............................. CYCLE    1 ..............................
........................................................................

 iter      E             dE          RMSdq      gap      omega  full diag
   1   -117.0718352 -0.117072E+03  0.261E-04    2.41       0.0  T
   2   -117.0718352 -0.789043E-09  0.183E-04    2.41      60.8  T
   3   -117.0718352 -0.101954E-08  0.134E-04    2.41      82.8  T
     SCC iter.                  ...        0 min,  0.349 sec
     gradient                   ...        0 min,  0.113 sec
 * total energy  :  -115.4986363 Eh     change       -0.4502766E-08 Eh
   gradient norm :     0.1128394 Eh/α   predicted     0.0000000E+00 (-100.00%)
   displ. norm   :     0.4206847 α      lambda       -0.2434593E-01
   maximum displ.:     0.1355896 α      in ANC's #88, #36, #57, ...

........................................................................
.............................. CYCLE    2 ..............................
........................................................................

 iter      E             dE          RMSdq      gap      omega  full diag
   1   -117.1368498 -0.117137E+03  0.269E-01    2.56       0.0  T
   2   -117.1372313 -0.381444E-03  0.152E-01    2.61       1.0  T
   3   -117.1371410  0.902812E-04  0.760E-02    2.62       1.0  T
   4   -117.1373719 -0.230905E-03  0.279E-02    2.62       1.0  T
   5   -117.1373885 -0.165931E-04  0.114E-02    2.63       1.0  T
   6   -117.1373909 -0.242296E-05  0.577E-03    2.62       1.9  T
   7   -117.1373918 -0.947293E-06  0.300E-03    2.62       3.7  T
   8   -117.1373920 -0.153379E-06  0.174E-03    2.62       6.4  T
   9   -117.1373920 -0.242198E-07  0.864E-04    2.62      12.9  T
  10   -117.1373920 -0.118564E-07  0.462E-04    2.62      24.0  T
     SCC iter.                  ...        0 min,  1.139 sec
     gradient                   ...        0 min,  0.167 sec
 * total energy  :  -115.5147964 Eh     change       -0.1616017E-01 Eh
   gradient norm :     0.0555872 Eh/α   predicted    -0.1434319E-01 ( -11.24%)
   displ. norm   :     0.3872365 α      lambda       -0.7809740E-02
   maximum displ.:     0.1412076 α      in ANC's #14, #6, #36, ...

........................................................................
.............................. CYCLE    3 ..............................
........................................................................

 iter      E             dE          RMSdq      gap      omega  full diag
   1   -117.1760254 -0.117176E+03  0.139E-01    2.73       0.0  T
   2   -117.1761274 -0.101966E-03  0.816E-02    2.77       1.0  T
   3   -117.1760954  0.319381E-04  0.431E-02    2.77       1.0  T
   4   -117.1761768 -0.813366E-04  0.120E-02    2.78       1.0  T
   5   -117.1761784 -0.161643E-05  0.480E-03    2.78       2.3  T
   6   -117.1761790 -0.582794E-06  0.259E-03    2.78       4.3  T
   7   -117.1761791 -0.169637E-06  0.130E-03    2.78       8.6  T
   8   -117.1761792 -0.250194E-07  0.724E-04    2.78      15.4  T
   9   -117.1761792 -0.632245E-08  0.373E-04    2.78      29.8  T
     SCC iter.                  ...        0 min,  1.192 sec
     gradient                   ...        0 min,  0.142 sec
 * total energy  :  -115.5195385 Eh     change       -0.4742066E-02 Eh
   gradient norm :     0.0267095 Eh/α   predicted    -0.4490428E-02 (  -5.31%)
   displ. norm   :     0.3826791 α      lambda       -0.2858649E-02
   maximum displ.:     0.1916703 α      in ANC's #14, #6, #20, ...

........................................................................
.............................. CYCLE    4 ..............................
........................................................................

 iter      E             dE          RMSdq      gap      omega  full diag
   1   -117.1830452 -0.117183E+03  0.115E-01    2.78       0.0  T
   2   -117.1830863 -0.410972E-04  0.634E-02    2.79       1.0  T
   3   -117.1830746  0.116589E-04  0.249E-02    2.79       1.0  T
   4   -117.1830927 -0.180279E-04  0.835E-03    2.80       1.3  T
   5   -117.1830953 -0.263266E-05  0.393E-03    2.79       2.8  T
   6   -117.1830954 -0.676329E-07  0.221E-03    2.79       5.0  T
   7   -117.1830954 -0.500436E-07  0.125E-03    2.79       8.9  T
   8   -117.1830954 -0.161900E-07  0.694E-04    2.79      16.0  T
   9   -117.1830954 -0.781691E-08  0.326E-04    2.79      34.0  T
     SCC iter.                  ...        0 min,  1.200 sec
     gradient                   ...        0 min,  0.167 sec
 * total energy  :  -115.5214204 Eh     change       -0.1881931E-02 Eh
   gradient norm :     0.0140408 Eh/α   predicted    -0.1638642E-02 ( -12.93%)
   displ. norm   :     0.4475944 α      lambda       -0.1930061E-02
   maximum displ.:     0.2204990 α      in ANC's #6, #14, #20, ...

........................................................................
.............................. CYCLE    5 ..............................
........................................................................

 iter      E             dE          RMSdq      gap      omega  full diag
   1   -117.1822807 -0.117182E+03  0.105E-01    2.80       0.0  T
   2   -117.1823030 -0.222785E-04  0.502E-02    2.79       1.0  T
   3   -117.1823009  0.212795E-05  0.146E-02    2.79       1.0  T
   4   -117.1823050 -0.418692E-05  0.865E-03    2.79       1.3  T
   5   -117.1823077 -0.270665E-05  0.299E-03    2.79       3.7  T
   6   -117.1823079 -0.139733E-06  0.124E-03    2.79       8.9  T
   7   -117.1823079 -0.358679E-07  0.702E-04    2.79      15.8  T
   8   -117.1823079 -0.337327E-08  0.374E-04    2.79      29.7  T
     SCC iter.                  ...        0 min,  1.120 sec
     gradient                   ...        0 min,  0.112 sec
 * total energy  :  -115.5227620 Eh     change       -0.1341536E-02 Eh
   gradient norm :     0.0108989 Eh/α   predicted    -0.1158372E-02 ( -13.65%)
   displ. norm   :     0.4350409 α      lambda       -0.1163365E-02
   maximum displ.:     0.2423333 α      in ANC's #6, #14, #20, ...

........................................................................
.............................. CYCLE    6 ..............................
........................................................................

 iter      E             dE          RMSdq      gap      omega  full diag
   1   -117.1791196 -0.117179E+03  0.817E-02    2.80       0.0  T
   2   -117.1791360 -0.164348E-04  0.410E-02    2.79       1.0  T
   3   -117.1791326  0.337069E-05  0.136E-02    2.79       1.0  T
   4   -117.1791382 -0.556582E-05  0.710E-03    2.79       1.6  T
   5   -117.1791397 -0.155617E-05  0.221E-03    2.79       5.0  T
   6   -117.1791399 -0.135762E-06  0.108E-03    2.79      10.3  T
   7   -117.1791399 -0.420218E-07  0.541E-04    2.79      20.6  T
   8   -117.1791399 -0.265574E-08  0.277E-04    2.79      40.1  T
     SCC iter.                  ...        0 min,  0.722 sec
     gradient                   ...        0 min,  0.113 sec
 * total energy  :  -115.5236384 Eh     change       -0.8764275E-03 Eh
   gradient norm :     0.0127132 Eh/α   predicted    -0.6917723E-03 ( -21.07%)
   displ. norm   :     0.4701767 α      lambda       -0.9874427E-03
   maximum displ.:     0.2677451 α      in ANC's #6, #14, #20, ...

........................................................................
.............................. CYCLE    7 ..............................
........................................................................

 iter      E             dE          RMSdq      gap      omega  full diag
   1   -117.1778856 -0.117178E+03  0.717E-02    2.79       0.0  T
   2   -117.1778965 -0.109128E-04  0.362E-02    2.78       1.0  T
   3   -117.1778929  0.367024E-05  0.131E-02    2.78       1.0  T
   4   -117.1778990 -0.615930E-05  0.594E-03    2.78       1.9  T
   5   -117.1778996 -0.588469E-06  0.184E-03    2.78       6.0  T
   6   -117.1778997 -0.570875E-07  0.104E-03    2.78      10.7  T
   7   -117.1778997 -0.156742E-07  0.647E-04    2.78      17.2  T
   8   -117.1778997 -0.396727E-08  0.361E-04    2.78      30.8  T
     SCC iter.                  ...        0 min,  0.769 sec
     gradient                   ...        0 min,  0.113 sec
 * total energy  :  -115.5244013 Eh     change       -0.7628897E-03 Eh
   gradient norm :     0.0119026 Eh/α   predicted    -0.6028676E-03 ( -20.98%)
   displ. norm   :     0.4827107 α      lambda       -0.8553960E-03
   maximum displ.:     0.2926885 α      in ANC's #6, #14, #7, ...

........................................................................
.............................. CYCLE    8 ..............................
........................................................................

 iter      E             dE          RMSdq      gap      omega  full diag
   1   -117.1789484 -0.117179E+03  0.728E-02    2.78       0.0  T
   2   -117.1789611 -0.127135E-04  0.352E-02    2.78       1.0  T
   3   -117.1789588  0.233823E-05  0.130E-02    2.78       1.0  T
   4   -117.1789635 -0.471658E-05  0.610E-03    2.78       1.8  T
   5   -117.1789642 -0.707236E-06  0.175E-03    2.78       6.3  T
   6   -117.1789642 -0.153532E-07  0.826E-04    2.78      13.5  T
   7   -117.1789642 -0.154076E-07  0.512E-04    2.78      21.7  T
     SCC iter.                  ...        0 min,  0.949 sec
     gradient                   ...        0 min,  0.116 sec
 * total energy  :  -115.5250568 Eh     change       -0.6555012E-03 Eh
   gradient norm :     0.0082374 Eh/α   predicted    -0.5273578E-03 ( -19.55%)
   displ. norm   :     0.4590629 α      lambda       -0.6233985E-03
   maximum displ.:     0.2851781 α      in ANC's #6, #7, #3, ...

........................................................................
.............................. CYCLE    9 ..............................
........................................................................

 iter      E             dE          RMSdq      gap      omega  full diag
   1   -117.1817379 -0.117182E+03  0.636E-02    2.77       0.0  T
   2   -117.1817460 -0.808141E-05  0.314E-02    2.77       1.0  T
   3   -117.1817444  0.158963E-05  0.107E-02    2.77       1.0  T
   4   -117.1817471 -0.268768E-05  0.542E-03    2.77       2.1  T
   5   -117.1817478 -0.693395E-06  0.149E-03    2.77       7.4  T
   6   -117.1817478 -0.436875E-07  0.601E-04    2.77      18.5  T
   7   -117.1817478 -0.415483E-08  0.400E-04    2.77      27.8  T
     SCC iter.                  ...        0 min,  0.787 sec
     gradient                   ...        0 min,  0.112 sec
 * total energy  :  -115.5255381 Eh     change       -0.4812765E-03 Eh
   gradient norm :     0.0053611 Eh/α   predicted    -0.3773870E-03 ( -21.59%)
   displ. norm   :     0.4119389 α      lambda       -0.4310593E-03
   maximum displ.:     0.2635535 α      in ANC's #6, #3, #7, ...

........................................................................
.............................. CYCLE   10 ..............................
........................................................................

 iter      E             dE          RMSdq      gap      omega  full diag
   1   -117.1841021 -0.117184E+03  0.604E-02    2.77       0.0  T
   2   -117.1841100 -0.796696E-05  0.287E-02    2.76       1.0  T
   3   -117.1841099  0.140683E-06  0.881E-03    2.76       1.3  T
   4   -117.1841105 -0.589507E-06  0.496E-03    2.76       2.2  T
   5   -117.1841113 -0.808935E-06  0.142E-03    2.76       7.8  T
   6   -117.1841113 -0.386086E-07  0.445E-04    2.76      25.0  T
   7   -117.1841113 -0.151249E-08  0.295E-04    2.76      37.7  T
     SCC iter.                  ...        0 min,  0.930 sec
     gradient                   ...        0 min,  0.144 sec
 * total energy  :  -115.5258749 Eh     change       -0.3368338E-03 Eh
   gradient norm :     0.0048342 Eh/α   predicted    -0.2521075E-03 ( -25.15%)
   displ. norm   :     0.3653160 α      lambda       -0.3065145E-03
   maximum displ.:     0.2308789 α      in ANC's #6, #3, #7, ...

........................................................................
.............................. CYCLE   11 ..............................
........................................................................

 iter      E             dE          RMSdq      gap      omega  full diag
   1   -117.1853355 -0.117185E+03  0.520E-02    2.76       0.0  T
   2   -117.1853412 -0.567985E-05  0.247E-02    2.76       1.0  T
   3   -117.1853413 -0.129784E-06  0.710E-03    2.76       1.6  T
   4   -117.1853414 -0.819692E-07  0.389E-03    2.76       2.9  T
   5   -117.1853420 -0.547685E-06  0.125E-03    2.76       8.9  T
   6   -117.1853420 -0.516036E-07  0.397E-04    2.76      28.0  T
   7   -117.1853420 -0.126363E-08  0.267E-04    2.76      41.6  T
     SCC iter.                  ...        0 min,  0.814 sec
     gradient                   ...        0 min,  0.117 sec
 * total energy  :  -115.5261146 Eh     change       -0.2396569E-03 Eh
   gradient norm :     0.0047398 Eh/α   predicted    -0.1737143E-03 ( -27.52%)
   displ. norm   :     0.3267274 α      lambda       -0.2222155E-03
   maximum displ.:     0.2000687 α      in ANC's #6, #3, #7, ...

........................................................................
.............................. CYCLE   12 ..............................
........................................................................

 iter      E             dE          RMSdq      gap      omega  full diag
   1   -117.1855640 -0.117186E+03  0.451E-02    2.76       0.0  T
   2   -117.1855679 -0.383113E-05  0.216E-02    2.75       1.0  T
   3   -117.1855680 -0.103220E-06  0.591E-03    2.75       1.9  T
   4   -117.1855679  0.382446E-07  0.324E-03    2.75       3.4  T
   5   -117.1855684 -0.450141E-06  0.108E-03    2.75      10.3  T
   6   -117.1855684 -0.423608E-07  0.415E-04    2.75      26.7  T
   7   -117.1855684 -0.105483E-08  0.273E-04    2.75      40.7  T
     SCC iter.                  ...        0 min,  0.813 sec
     gradient                   ...        0 min,  0.162 sec
 * total energy  :  -115.5262836 Eh     change       -0.1690636E-03 Eh
   gradient norm :     0.0041965 Eh/α   predicted    -0.1229688E-03 ( -27.26%)
   displ. norm   :     0.2806616 α      lambda       -0.1504486E-03
   maximum displ.:     0.1633491 α      in ANC's #6, #3, #7, ...

........................................................................
.............................. CYCLE   13 ..............................
........................................................................

 iter      E             dE          RMSdq      gap      omega  full diag
   1   -117.1851854 -0.117185E+03  0.367E-02    2.75       0.0  T
   2   -117.1851875 -0.203759E-05  0.182E-02    2.75       1.0  T
   3   -117.1851875 -0.439961E-07  0.480E-03    2.75       2.3  T
   4   -117.1851875  0.143154E-07  0.259E-03    2.75       4.3  T
   5   -117.1851878 -0.283566E-06  0.875E-04    2.75      12.7  T
   6   -117.1851878 -0.224647E-07  0.422E-04    2.75      26.4  T
     SCC iter.                  ...        0 min,  0.752 sec
     gradient                   ...        0 min,  0.172 sec
 * total energy  :  -115.5263956 Eh     change       -0.1119886E-03 Eh
   gradient norm :     0.0031936 Eh/α   predicted    -0.8115315E-04 ( -27.53%)
   displ. norm   :     0.2437171 α      lambda       -0.1078457E-03
   maximum displ.:     0.1293437 α      in ANC's #6, #3, #7, ...

........................................................................
.............................. CYCLE   14 ..............................
........................................................................

 iter      E             dE          RMSdq      gap      omega  full diag
   1   -117.1846986 -0.117185E+03  0.308E-02    2.75       0.0  T
   2   -117.1846998 -0.119845E-05  0.160E-02    2.75       1.0  T
   3   -117.1846998 -0.141198E-07  0.409E-03    2.75       2.7  T
   4   -117.1846998 -0.401383E-07  0.210E-03    2.75       5.3  T
   5   -117.1847000 -0.159381E-06  0.786E-04    2.75      14.1  T
   6   -117.1847000 -0.155880E-07  0.412E-04    2.75      27.0  T
     SCC iter.                  ...        0 min,  0.860 sec
     gradient                   ...        0 min,  0.115 sec
 * total energy  :  -115.5264757 Eh     change       -0.8006961E-04 Eh
   gradient norm :     0.0023884 Eh/α   predicted    -0.5712797E-04 ( -28.65%)
   displ. norm   :     0.2276691 α      lambda       -0.8957617E-04
   maximum displ.:     0.1015291 α      in ANC's #6, #3, #7, ...

........................................................................
.............................. CYCLE   15 ..............................
........................................................................

 iter      E             dE          RMSdq      gap      omega  full diag
   1   -117.1842950 -0.117184E+03  0.281E-02    2.75       0.0  T
   2   -117.1842958 -0.823391E-06  0.155E-02    2.75       1.0  T
   3   -117.1842957  0.688273E-07  0.363E-03    2.75       3.1  T
   4   -117.1842958 -0.129235E-06  0.180E-03    2.75       6.2  T
   5   -117.1842960 -0.112781E-06  0.721E-04    2.75      15.4  T
   6   -117.1842960 -0.132953E-07  0.362E-04    2.75      30.7  T
     SCC iter.                  ...        0 min,  0.495 sec
     gradient                   ...        0 min,  0.142 sec
 * total energy  :  -115.5265415 Eh     change       -0.6579367E-04 Eh
   gradient norm :     0.0025146 Eh/α   predicted    -0.4711232E-04 ( -28.39%)
   displ. norm   :     0.1974930 α      lambda       -0.7212979E-04
   maximum displ.:     0.0703769 α      in ANC's #3, #1, #6, ...

........................................................................
.............................. CYCLE   16 ..............................
........................................................................

 iter      E             dE          RMSdq      gap      omega  full diag
   1   -117.1841975 -0.117184E+03  0.241E-02    2.75       0.0  T
   2   -117.1841980 -0.429480E-06  0.139E-02    2.75       1.0  T
   3   -117.1841977  0.284845E-06  0.305E-03    2.75       3.6  T
   4   -117.1841980 -0.336967E-06  0.146E-03    2.75       7.6  T
   5   -117.1841981 -0.826936E-07  0.557E-04    2.75      19.9  T
   6   -117.1841981 -0.779936E-08  0.268E-04    2.75      41.5  T
     SCC iter.                  ...        0 min,  0.686 sec
     gradient                   ...        0 min,  0.169 sec
 * total energy  :  -115.5265945 Eh     change       -0.5303340E-04 Eh
   gradient norm :     0.0028918 Eh/α   predicted    -0.3747346E-04 ( -29.34%)
   displ. norm   :     0.1650056 α      lambda       -0.5634152E-04
   maximum displ.:     0.0641425 α      in ANC's #5, #3, #1, ...

........................................................................
.............................. CYCLE   17 ..............................
........................................................................

 iter      E             dE          RMSdq      gap      omega  full diag
   1   -117.1844926 -0.117184E+03  0.205E-02    2.75       0.0  T
   2   -117.1844928 -0.247270E-06  0.118E-02    2.75       1.0  T
   3   -117.1844925  0.305535E-06  0.276E-03    2.75       4.0  T
   4   -117.1844929 -0.349991E-06  0.130E-03    2.75       8.5  T
   5   -117.1844929 -0.609942E-07  0.340E-04    2.75      32.7  T
   6   -117.1844930 -0.296704E-08  0.181E-04    2.75      61.2  T
     SCC iter.                  ...        0 min,  0.636 sec
     gradient                   ...        0 min,  0.174 sec
 * total energy  :  -115.5266352 Eh     change       -0.4072822E-04 Eh
   gradient norm :     0.0025467 Eh/α   predicted    -0.2894267E-04 ( -28.94%)
   displ. norm   :     0.1309735 α      lambda       -0.3865851E-04
   maximum displ.:     0.0516039 α      in ANC's #5, #1, #3, ...

........................................................................
.............................. CYCLE   18 ..............................
........................................................................

 iter      E             dE          RMSdq      gap      omega  full diag
   1   -117.1849641 -0.117185E+03  0.170E-02    2.75       0.0  T
   2   -117.1849644 -0.297860E-06  0.930E-03    2.75       1.2  T
   3   -117.1849643  0.985216E-07  0.240E-03    2.75       4.6  T
   4   -117.1849644 -0.111890E-06  0.127E-03    2.75       8.8  T
   5   -117.1849645 -0.647522E-07  0.327E-04    2.75      34.0  T
   6   -117.1849645 -0.317270E-08  0.142E-04    2.75      78.0  T
     SCC iter.                  ...        0 min,  0.720 sec
     gradient                   ...        0 min,  0.168 sec
 * total energy  :  -115.5266632 Eh     change       -0.2798339E-04 Eh
   gradient norm :     0.0016027 Eh/α   predicted    -0.1966421E-04 ( -29.73%)
   displ. norm   :     0.1686009 α      lambda       -0.2783017E-04
   maximum displ.:     0.0756068 α      in ANC's #3, #1, #2, ...

........................................................................
.............................. CYCLE   19 ..............................
........................................................................

 iter      E             dE          RMSdq      gap      omega  full diag
   1   -117.1854859 -0.117185E+03  0.214E-02    2.76       0.0  T
   2   -117.1854866 -0.717642E-06  0.111E-02    2.76       1.0  T
   3   -117.1854866  0.328869E-07  0.301E-03    2.76       3.7  T
   4   -117.1854867 -0.847431E-07  0.151E-03    2.76       7.4  T
   5   -117.1854867 -0.780509E-07  0.507E-04    2.76      21.9  T
   6   -117.1854867 -0.674709E-08  0.179E-04    2.76      62.1  T
     SCC iter.                  ...        0 min,  0.568 sec
     gradient                   ...        0 min,  0.144 sec
 * total energy  :  -115.5266899 Eh     change       -0.2670834E-04 Eh
   gradient norm :     0.0015618 Eh/α   predicted    -0.1409172E-04 ( -47.24%)
   displ. norm   :     0.1116503 α      lambda       -0.1860487E-04
   maximum displ.:     0.0546766 α      in ANC's #3, #1, #2, ...

........................................................................
.............................. CYCLE   20 ..............................
........................................................................

 iter      E             dE          RMSdq      gap      omega  full diag
   1   -117.1855700 -0.117186E+03  0.115E-02    2.76       0.0  T
   2   -117.1855702 -0.156490E-06  0.607E-03    2.76       1.8  T
   3   -117.1855702  0.237082E-07  0.148E-03    2.76       7.5  T
   4   -117.1855702 -0.237918E-07  0.767E-04    2.76      14.5  T
   5   -117.1855702 -0.301189E-07  0.226E-04    2.76      49.2  T
     SCC iter.                  ...        0 min,  0.627 sec
     gradient                   ...        0 min,  0.112 sec
 * total energy  :  -115.5267136 Eh     change       -0.2363851E-04 Eh
   gradient norm :     0.0019007 Eh/α   predicted    -0.9357530E-05 ( -60.41%)
   displ. norm   :     0.2120145 α      lambda       -0.3407396E-04
   maximum displ.:     0.1008653 α      in ANC's #1, #3, #2, ...
 * RMSD in coord.:     0.5092253 α      energy gain  -0.2807730E-01 Eh

generating ANC from exact Hessian ...
Using Lindh-Hessian (1995)
 Shifting diagonal of input Hessian by    9.8998986474343326E-003
 Lowest  eigenvalues of input Hessian
    0.000000    0.000000    0.000000    0.000000    0.000000    0.000000
    0.010000    0.010069    0.010115    0.010213    0.010358    0.010379
    0.010558    0.010620    0.011084    0.011428    0.011631    0.011652
 Highest eigenvalues
    2.017478    2.032083    2.046569    2.111180    2.116066    2.229535


........................................................................
.............................. CYCLE   21 ..............................
........................................................................

 iter      E             dE          RMSdq      gap      omega  full diag
   1   -117.1853218 -0.117185E+03  0.186E-02    2.76       0.0  T
   2   -117.1853220 -0.215915E-06  0.106E-02    2.76       1.1  T
   3   -117.1853218  0.204348E-06  0.227E-03    2.76       4.9  T
   4   -117.1853221 -0.236837E-06  0.103E-03    2.76      10.8  T
   5   -117.1853221 -0.406339E-07  0.303E-04    2.76      36.7  T
   6   -117.1853221 -0.364791E-08  0.161E-04    2.76      68.9  T
     SCC iter.                  ...        0 min,  0.685 sec
     gradient                   ...        0 min,  0.116 sec
 * total energy  :  -115.5267532 Eh     change       -0.3961052E-04 Eh
   gradient norm :     0.0018747 Eh/α   predicted     0.0000000E+00 (-100.00%)
   displ. norm   :     0.0347498 α      lambda       -0.4482422E-05
   maximum displ.:     0.0164440 α      in ANC's #1, #4, #6, ...

........................................................................
.............................. CYCLE   22 ..............................
........................................................................

 iter      E             dE          RMSdq      gap      omega  full diag
   1   -117.1851234 -0.117185E+03  0.584E-03    2.76       0.0  T
   2   -117.1851235 -0.108586E-06  0.306E-03    2.76       3.6  T
   3   -117.1851235  0.118494E-07  0.103E-03    2.76      10.8  T
   4   -117.1851235 -0.272770E-07  0.477E-04    2.76      23.3  T
   5   -117.1851235 -0.484521E-08  0.183E-04    2.76      60.7  T
     SCC iter.                  ...        0 min,  0.658 sec
     gradient                   ...        0 min,  0.112 sec
 * total energy  :  -115.5267653 Eh     change       -0.1216105E-04 Eh
   gradient norm :     0.0009456 Eh/α   predicted    -0.4879851E-05 ( -59.87%)
   displ. norm   :     0.1213293 α      lambda       -0.2315566E-04
   maximum displ.:     0.0616539 α      in ANC's #1, #6, #3, ...

........................................................................
.............................. CYCLE   23 ..............................
........................................................................

 iter      E             dE          RMSdq      gap      omega  full diag
   1   -117.1848605 -0.117185E+03  0.181E-02    2.76       0.0  T
   2   -117.1848613 -0.767997E-06  0.931E-03    2.76       1.2  T
   3   -117.1848612  0.393452E-07  0.288E-03    2.76       3.9  T
   4   -117.1848614 -0.150624E-06  0.119E-03    2.76       9.4  T
   5   -117.1848614 -0.142108E-07  0.488E-04    2.76      22.8  T
   6   -117.1848614 -0.647995E-08  0.205E-04    2.76      54.3  T
     SCC iter.                  ...        0 min,  0.734 sec
     gradient                   ...        0 min,  0.127 sec
 * total energy  :  -115.5267859 Eh     change       -0.2056835E-04 Eh
   gradient norm :     0.0017254 Eh/α   predicted    -0.1165414E-04 ( -43.34%)
   displ. norm   :     0.1489893 α      lambda       -0.2205635E-04
   maximum displ.:     0.0711076 α      in ANC's #1, #6, #4, ...

........................................................................
.............................. CYCLE   24 ..............................
........................................................................

 iter      E             dE          RMSdq      gap      omega  full diag
   1   -117.1847675 -0.117185E+03  0.296E-02    2.75       0.0  T
   2   -117.1847691 -0.159681E-05  0.141E-02    2.75       1.0  T
   3   -117.1847691  0.435626E-07  0.359E-03    2.75       3.1  T
   4   -117.1847693 -0.199316E-06  0.210E-03    2.75       5.3  T
   5   -117.1847694 -0.126096E-06  0.691E-04    2.75      16.1  T
   6   -117.1847694 -0.136897E-07  0.300E-04    2.75      37.0  T
     SCC iter.                  ...        0 min,  0.804 sec
     gradient                   ...        0 min,  0.114 sec
 * total energy  :  -115.5267946 Eh     change       -0.8723623E-05 Eh
   gradient norm :     0.0030034 Eh/α   predicted    -0.1113738E-04 (  27.67%)
   displ. norm   :     0.0528019 α      lambda       -0.1950615E-04
   maximum displ.:     0.0292236 α      in ANC's #1, #6, #3, ...

........................................................................
.............................. CYCLE   25 ..............................
........................................................................

 iter      E             dE          RMSdq      gap      omega  full diag
   1   -117.1848181 -0.117185E+03  0.801E-03    2.75       0.0  T
   2   -117.1848181 -0.913565E-07  0.395E-03    2.75       2.8  T
   3   -117.1848182 -0.737873E-08  0.112E-03    2.75       9.9  T
   4   -117.1848182 -0.573232E-08  0.528E-04    2.75      21.0  T
   5   -117.1848182 -0.155859E-08  0.188E-04    2.75      59.1  T
     SCC iter.                  ...        0 min,  0.431 sec
     gradient                   ...        0 min,  0.113 sec
 * total energy  :  -115.5268114 Eh     change       -0.1673540E-04 Eh
   gradient norm :     0.0026646 Eh/α   predicted    -0.9784792E-05 ( -41.53%)
   displ. norm   :     0.1421157 α      lambda       -0.4450997E-04
   maximum displ.:     0.0747964 α      in ANC's #1, #6, #3, ...

........................................................................
.............................. CYCLE   26 ..............................
........................................................................

 iter      E             dE          RMSdq      gap      omega  full diag
   1   -117.1850624 -0.117185E+03  0.184E-02    2.76       0.0  T
   2   -117.1850630 -0.581540E-06  0.956E-03    2.76       1.2  T
   3   -117.1850630 -0.321774E-08  0.282E-03    2.76       3.9  T
   4   -117.1850631 -0.499575E-07  0.118E-03    2.76       9.4  T
   5   -117.1850631 -0.238864E-07  0.474E-04    2.76      23.4  T
   6   -117.1850631 -0.940238E-08  0.214E-04    2.76      52.0  T
     SCC iter.                  ...        0 min,  0.521 sec
     gradient                   ...        0 min,  0.155 sec
 * total energy  :  -115.5268421 Eh     change       -0.3069742E-04 Eh
   gradient norm :     0.0015816 Eh/α   predicted    -0.2270519E-04 ( -26.04%)
   displ. norm   :     0.2848436 α      lambda       -0.3125968E-04
   maximum displ.:     0.1467241 α      in ANC's #1, #6, #3, ...

........................................................................
.............................. CYCLE   27 ..............................
........................................................................

 iter      E             dE          RMSdq      gap      omega  full diag
   1   -117.1849447 -0.117185E+03  0.286E-02    2.76       0.0  T
   2   -117.1849454 -0.675706E-06  0.160E-02    2.76       1.0  T
   3   -117.1849453  0.550083E-07  0.311E-03    2.76       3.6  T
   4   -117.1849455 -0.139406E-06  0.151E-03    2.76       7.4  T
   5   -117.1849455 -0.668654E-07  0.537E-04    2.76      20.7  T
   6   -117.1849455 -0.827319E-08  0.270E-04    2.76      41.2  T
     SCC iter.                  ...        0 min,  0.785 sec
     gradient                   ...        0 min,  0.157 sec
 * total energy  :  -115.5268692 Eh     change       -0.2717238E-04 Eh
   gradient norm :     0.0019455 Eh/α   predicted    -0.1619431E-04 ( -40.40%)
   displ. norm   :     0.3870296 α      lambda       -0.3985513E-04
   maximum displ.:     0.1988023 α      in ANC's #1, #6, #3, ...

........................................................................
.............................. CYCLE   28 ..............................
........................................................................

 iter      E             dE          RMSdq      gap      omega  full diag
   1   -117.1841667 -0.117184E+03  0.399E-02    2.76       0.0  T
   2   -117.1841682 -0.150449E-05  0.223E-02    2.76       1.0  T
   3   -117.1841678  0.404989E-06  0.507E-03    2.76       2.2  T
   4   -117.1841683 -0.547812E-06  0.216E-03    2.76       5.1  T
   5   -117.1841685 -0.155929E-06  0.775E-04    2.76      14.3  T
   6   -117.1841685 -0.128177E-07  0.334E-04    2.76      33.3  T
     SCC iter.                  ...        0 min,  0.581 sec
     gradient                   ...        0 min,  0.112 sec
 * total energy  :  -115.5269062 Eh     change       -0.3700272E-04 Eh
   gradient norm :     0.0028457 Eh/α   predicted    -0.2125771E-04 ( -42.55%)
   displ. norm   :     0.2898242 α      lambda       -0.4876522E-04
   maximum displ.:     0.1488257 α      in ANC's #1, #6, #3, ...

........................................................................
.............................. CYCLE   29 ..............................
........................................................................

 iter      E             dE          RMSdq      gap      omega  full diag
   1   -117.1840283 -0.117184E+03  0.316E-02    2.76       0.0  T
   2   -117.1840292 -0.939113E-06  0.167E-02    2.76       1.0  T
   3   -117.1840290  0.223472E-06  0.390E-03    2.76       2.8  T
   4   -117.1840292 -0.278023E-06  0.213E-03    2.76       5.2  T
   5   -117.1840294 -0.174125E-06  0.444E-04    2.76      25.0  T
   6   -117.1840294 -0.766329E-08  0.200E-04    2.76      55.6  T
     SCC iter.                  ...        0 min,  0.556 sec
     gradient                   ...        0 min,  0.112 sec
 * total energy  :  -115.5269461 Eh     change       -0.3984980E-04 Eh
   gradient norm :     0.0024244 Eh/α   predicted    -0.2643350E-04 ( -33.67%)
   displ. norm   :     0.4200188 α      lambda       -0.6236884E-04
   maximum displ.:     0.2179660 α      in ANC's #1, #6, #3, ...

........................................................................
.............................. CYCLE   30 ..............................
........................................................................

 iter      E             dE          RMSdq      gap      omega  full diag
   1   -117.1841303 -0.117184E+03  0.435E-02    2.76       0.0  T
   2   -117.1841319 -0.165838E-05  0.234E-02    2.76       1.0  T
   3   -117.1841313  0.599434E-06  0.548E-03    2.76       2.0  T
   4   -117.1841321 -0.730683E-06  0.289E-03    2.76       3.8  T
   5   -117.1841324 -0.300318E-06  0.628E-04    2.76      17.7  T
   6   -117.1841324 -0.167775E-07  0.268E-04    2.76      41.5  T
     SCC iter.                  ...        0 min,  0.755 sec
     gradient                   ...        0 min,  0.119 sec
 * total energy  :  -115.5269921 Eh     change       -0.4595951E-04 Eh
   gradient norm :     0.0019874 Eh/α   predicted    -0.3668657E-04 ( -20.18%)
   displ. norm   :     0.5898837 α      lambda       -0.4452940E-04
   maximum displ.:     0.3086754 α      in ANC's #1, #6, #3, ...

........................................................................
.............................. CYCLE   31 ..............................
........................................................................

 iter      E             dE          RMSdq      gap      omega  full diag
   1   -117.1836281 -0.117184E+03  0.552E-02    2.76       0.0  T
   2   -117.1836301 -0.200921E-05  0.309E-02    2.76       1.0  T
   3   -117.1836285  0.156842E-05  0.692E-03    2.75       1.6  T
   4   -117.1836305 -0.193199E-05  0.310E-03    2.75       3.6  T
   5   -117.1836308 -0.278894E-06  0.817E-04    2.75      13.6  T
   6   -117.1836308 -0.325748E-07  0.287E-04    2.75      38.7  T
     SCC iter.                  ...        0 min,  0.636 sec
     gradient                   ...        0 min,  0.113 sec
 * total energy  :  -115.5270388 Eh     change       -0.4673693E-04 Eh
   gradient norm :     0.0024757 Eh/α   predicted    -0.2570857E-04 ( -44.99%)
   displ. norm   :     0.2306292 α      lambda       -0.4221234E-04
   maximum displ.:     0.1185681 α      in ANC's #1, #5, #4, ...

........................................................................
.............................. CYCLE   32 ..............................
........................................................................

 iter      E             dE          RMSdq      gap      omega  full diag
   1   -117.1851191 -0.117185E+03  0.213E-02    2.76       0.0  T
   2   -117.1851194 -0.234462E-06  0.124E-02    2.76       1.0  T
   3   -117.1851190  0.413074E-06  0.279E-03    2.76       4.0  T
   4   -117.1851194 -0.496281E-06  0.823E-04    2.76      13.5  T
   5   -117.1851195 -0.156658E-07  0.344E-04    2.76      32.3  T
     SCC iter.                  ...        0 min,  0.612 sec
     gradient                   ...        0 min,  0.172 sec
 * total energy  :  -115.5270728 Eh     change       -0.3404142E-04 Eh
   gradient norm :     0.0021446 Eh/α   predicted    -0.2222942E-04 ( -34.70%)
   displ. norm   :     0.2768217 α      lambda       -0.4752132E-04
   maximum displ.:     0.1419481 α      in ANC's #1, #5, #4, ...

........................................................................
.............................. CYCLE   33 ..............................
........................................................................

 iter      E             dE          RMSdq      gap      omega  full diag
   1   -117.1850529 -0.117185E+03  0.257E-02    2.76       0.0  T
   2   -117.1850534 -0.502577E-06  0.147E-02    2.76       1.0  T
   3   -117.1850531  0.353975E-06  0.352E-03    2.76       3.2  T
   4   -117.1850535 -0.439065E-06  0.135E-03    2.76       8.2  T
   5   -117.1850536 -0.533708E-07  0.543E-04    2.76      20.5  T
   6   -117.1850536 -0.123414E-07  0.209E-04    2.76      53.2  T
     SCC iter.                  ...        0 min,  0.532 sec
     gradient                   ...        0 min,  0.112 sec
 * total energy  :  -115.5271114 Eh     change       -0.3861526E-04 Eh
   gradient norm :     0.0014177 Eh/α   predicted    -0.2558208E-04 ( -33.75%)
   displ. norm   :     0.3949271 α      lambda       -0.4040087E-04
   maximum displ.:     0.1967563 α      in ANC's #1, #5, #4, ...

........................................................................
.............................. CYCLE   34 ..............................
........................................................................

 iter      E             dE          RMSdq      gap      omega  full diag
   1   -117.1852433 -0.117185E+03  0.376E-02    2.76       0.0  T
   2   -117.1852445 -0.121853E-05  0.212E-02    2.76       1.0  T
   3   -117.1852438  0.648890E-06  0.527E-03    2.76       2.1  T
   4   -117.1852446 -0.792575E-06  0.215E-03    2.76       5.2  T
   5   -117.1852448 -0.149555E-06  0.815E-04    2.76      13.6  T
   6   -117.1852448 -0.306748E-07  0.255E-04    2.76      43.5  T
     SCC iter.                  ...        0 min,  0.784 sec
     gradient                   ...        0 min,  0.117 sec
 * total energy  :  -115.5271524 Eh     change       -0.4097888E-04 Eh
   gradient norm :     0.0015017 Eh/α   predicted    -0.2160601E-04 ( -47.28%)
   displ. norm   :     0.2926578 α      lambda       -0.2222037E-04
   maximum displ.:     0.1503500 α      in ANC's #1, #5, #4, ...

........................................................................
.............................. CYCLE   35 ..............................
........................................................................

 iter      E             dE          RMSdq      gap      omega  full diag
   1   -117.1846152 -0.117185E+03  0.256E-02    2.76       0.0  T
   2   -117.1846158 -0.522259E-06  0.146E-02    2.76       1.0  T
   3   -117.1846154  0.334331E-06  0.351E-03    2.76       3.2  T
   4   -117.1846158 -0.415945E-06  0.134E-03    2.76       8.3  T
   5   -117.1846159 -0.513206E-07  0.553E-04    2.76      20.1  T
   6   -117.1846159 -0.115098E-07  0.174E-04    2.76      63.9  T
     SCC iter.                  ...        0 min,  0.641 sec
     gradient                   ...        0 min,  0.144 sec
 * total energy  :  -115.5271792 Eh     change       -0.2676288E-04 Eh
   gradient norm :     0.0016774 Eh/α   predicted    -0.1153418E-04 ( -56.90%)
   displ. norm   :     0.3693557 α      lambda       -0.3358159E-04
   maximum displ.:     0.1816492 α      in ANC's #1, #5, #4, ...

........................................................................
.............................. CYCLE   36 ..............................
........................................................................

 iter      E             dE          RMSdq      gap      omega  full diag
   1   -117.1855928 -0.117186E+03  0.344E-02    2.76       0.0  T
   2   -117.1855937 -0.927210E-06  0.191E-02    2.76       1.0  T
   3   -117.1855932  0.546788E-06  0.475E-03    2.76       2.3  T
   4   -117.1855938 -0.643041E-06  0.218E-03    2.76       5.1  T
   5   -117.1855940 -0.166072E-06  0.805E-04    2.76      13.8  T
   6   -117.1855940 -0.155189E-07  0.354E-04    2.76      31.4  T
     SCC iter.                  ...        0 min,  0.575 sec
     gradient                   ...        0 min,  0.169 sec
 * total energy  :  -115.5272100 Eh     change       -0.3076631E-04 Eh
   gradient norm :     0.0018008 Eh/α   predicted    -0.1781213E-04 ( -42.11%)
   displ. norm   :     0.2799801 α      lambda       -0.1610802E-04
   maximum displ.:     0.1501983 α      in ANC's #1, #4, #5, ...

........................................................................
.............................. CYCLE   37 ..............................
........................................................................

 iter      E             dE          RMSdq      gap      omega  full diag
   1   -117.1840071 -0.117184E+03  0.261E-02    2.75       0.0  T
   2   -117.1840077 -0.593518E-06  0.146E-02    2.75       1.0  T
   3   -117.1840074  0.328592E-06  0.338E-03    2.75       3.3  T
   4   -117.1840078 -0.397328E-06  0.148E-03    2.75       7.5  T
   5   -117.1840079 -0.812155E-07  0.546E-04    2.75      20.4  T
   6   -117.1840079 -0.417619E-08  0.261E-04    2.75      42.5  T
     SCC iter.                  ...        0 min,  0.637 sec
     gradient                   ...        0 min,  0.113 sec
 * total energy  :  -115.5272211 Eh     change       -0.1115934E-04 Eh
   gradient norm :     0.0017570 Eh/α   predicted    -0.8336870E-05 ( -25.29%)
   displ. norm   :     0.0550037 α      lambda       -0.1049287E-04
   maximum displ.:     0.0226018 α      in ANC's #7, #16, #26, ...

........................................................................
.............................. CYCLE   38 ..............................
........................................................................

 iter      E             dE          RMSdq      gap      omega  full diag
   1   -117.1851972 -0.117185E+03  0.974E-03    2.75       0.0  T
   2   -117.1851974 -0.196213E-06  0.558E-03    2.75       2.0  T
   3   -117.1851974  0.444207E-07  0.156E-03    2.75       7.1  T
   4   -117.1851974 -0.691075E-07  0.598E-04    2.75      18.6  T
   5   -117.1851974 -0.618282E-08  0.283E-04    2.75      39.3  T
     SCC iter.                  ...        0 min,  0.556 sec
     gradient                   ...        0 min,  0.146 sec
 * total energy  :  -115.5272311 Eh     change       -0.9973365E-05 Eh
   gradient norm :     0.0009414 Eh/α   predicted    -0.5253672E-05 ( -47.32%)
   displ. norm   :     0.0767647 α      lambda       -0.7466714E-05
   maximum displ.:     0.0339658 α      in ANC's #1, #5, #4, ...

........................................................................
.............................. CYCLE   39 ..............................
........................................................................

 iter      E             dE          RMSdq      gap      omega  full diag
   1   -117.1853606 -0.117185E+03  0.103E-02    2.75       0.0  T
   2   -117.1853608 -0.171407E-06  0.578E-03    2.75       1.9  T
   3   -117.1853608  0.173185E-07  0.145E-03    2.75       7.7  T
   4   -117.1853608 -0.336158E-07  0.638E-04    2.75      17.4  T
   5   -117.1853608 -0.811545E-08  0.239E-04    2.75      46.5  T
     SCC iter.                  ...        0 min,  0.691 sec
     gradient                   ...        0 min,  0.119 sec
 * total energy  :  -115.5272379 Eh     change       -0.6782382E-05 Eh
   gradient norm :     0.0008676 Eh/α   predicted    -0.3744672E-05 ( -44.79%)
   displ. norm   :     0.0752979 α      lambda       -0.5094772E-05
   maximum displ.:     0.0358913 α      in ANC's #1, #2, #7, ...

........................................................................
.............................. CYCLE   40 ..............................
........................................................................

 iter      E             dE          RMSdq      gap      omega  full diag
   1   -117.1851754 -0.117185E+03  0.878E-03    2.75       0.0  T
   2   -117.1851754 -0.487802E-07  0.500E-03    2.75       2.2  T
   3   -117.1851754  0.103842E-07  0.861E-04    2.75      12.9  T
   4   -117.1851754 -0.135564E-07  0.398E-04    2.75      27.9  T
     SCC iter.                  ...        0 min,  0.400 sec
     gradient                   ...        0 min,  0.171 sec
 * total energy  :  -115.5272438 Eh     change       -0.5878852E-05 Eh
   gradient norm :     0.0010240 Eh/α   predicted    -0.2555575E-05 ( -56.53%)
   displ. norm   :     0.1160151 α      lambda       -0.7333467E-05
   maximum displ.:     0.0514787 α      in ANC's #1, #7, #4, ...

........................................................................
.............................. CYCLE   41 ..............................
........................................................................

 iter      E             dE          RMSdq      gap      omega  full diag
   1   -117.1850439 -0.117185E+03  0.126E-02    2.75       0.0  T
   2   -117.1850440 -0.765450E-07  0.726E-03    2.75       1.5  T
   3   -117.1850440  0.391667E-07  0.117E-03    2.75       9.5  T
   4   -117.1850440 -0.401304E-07  0.583E-04    2.75      19.1  T
   5   -117.1850440 -0.191377E-07  0.171E-04    2.75      65.1  T
     SCC iter.                  ...        0 min,  0.591 sec
     gradient                   ...        0 min,  0.144 sec
 * total energy  :  -115.5272518 Eh     change       -0.8033364E-05 Eh
   gradient norm :     0.0009816 Eh/α   predicted    -0.3691427E-05 ( -54.05%)
   displ. norm   :     0.1339529 α      lambda       -0.6774377E-05
   maximum displ.:     0.0564561 α      in ANC's #1, #4, #7, ...

........................................................................
.............................. CYCLE   42 ..............................
........................................................................

 iter      E             dE          RMSdq      gap      omega  full diag
   1   -117.1848852 -0.117185E+03  0.139E-02    2.75       0.0  T
   2   -117.1848853 -0.103761E-06  0.803E-03    2.75       1.4  T
   3   -117.1848853  0.304019E-07  0.126E-03    2.75       8.8  T
   4   -117.1848853 -0.353101E-07  0.626E-04    2.75      17.8  T
   5   -117.1848853 -0.182824E-07  0.210E-04    2.75      53.0  T
     SCC iter.                  ...        0 min,  0.681 sec
     gradient                   ...        0 min,  0.151 sec
 * total energy  :  -115.5272590 Eh     change       -0.7233442E-05 Eh
   gradient norm :     0.0010210 Eh/α   predicted    -0.3416630E-05 ( -52.77%)
   displ. norm   :     0.1313782 α      lambda       -0.7213185E-05
   maximum displ.:     0.0510867 α      in ANC's #7, #4, #1, ...
 * RMSD in coord.:     0.4906477 α      energy gain  -0.5454432E-03 Eh

generating ANC from exact Hessian ...
Using Lindh-Hessian (1995)
 Shifting diagonal of input Hessian by    1.0164332752925991E-002
 Lowest  eigenvalues of input Hessian
    0.010000    0.000000    0.000000    0.000000    0.000000    0.000000
    0.000000    0.010303    0.010397    0.010475    0.010646    0.010702
    0.010806    0.010856    0.011382    0.011689    0.011838    0.011975
 Highest eigenvalues
    2.017705    2.032475    2.045858    2.108245    2.113740    2.229526


........................................................................
.............................. CYCLE   43 ..............................
........................................................................

 iter      E             dE          RMSdq      gap      omega  full diag
   1   -117.1850055 -0.117185E+03  0.139E-02    2.76       0.0  T
   2   -117.1850056 -0.100246E-06  0.810E-03    2.76       1.4  T
   3   -117.1850056  0.348328E-07  0.124E-03    2.76       8.9  T
   4   -117.1850056 -0.413362E-07  0.630E-04    2.76      17.6  T
   5   -117.1850056 -0.170760E-07  0.221E-04    2.76      50.4  T
     SCC iter.                  ...        0 min,  0.553 sec
     gradient                   ...        0 min,  0.153 sec
 * total energy  :  -115.5272668 Eh     change       -0.7750861E-05 Eh
   gradient norm :     0.0009284 Eh/α   predicted     0.0000000E+00 (-100.00%)
   displ. norm   :     0.0205774 α      lambda       -0.3245659E-05
   maximum displ.:     0.0077853 α      in ANC's #1, #10, #17, ...

........................................................................
.............................. CYCLE   44 ..............................
........................................................................

 iter      E             dE          RMSdq      gap      omega  full diag
   1   -117.1852794 -0.117185E+03  0.384E-03    2.75       0.0  T
   2   -117.1852795 -0.294781E-07  0.216E-03    2.75       5.1  T
   3   -117.1852795  0.778805E-08  0.628E-04    2.75      17.7  T
   4   -117.1852795 -0.115267E-07  0.231E-04    2.75      48.0  T
     SCC iter.                  ...        0 min,  0.638 sec
     gradient                   ...        0 min,  0.183 sec
 * total energy  :  -115.5272708 Eh     change       -0.4074973E-05 Eh
   gradient norm :     0.0004350 Eh/α   predicted    -0.1762267E-05 ( -56.75%)
   displ. norm   :     0.0680814 α      lambda       -0.7649419E-05
   maximum displ.:     0.0266296 α      in ANC's #17, #10, #14, ...

........................................................................
.............................. CYCLE   45 ..............................
........................................................................

 iter      E             dE          RMSdq      gap      omega  full diag
   1   -117.1854767 -0.117185E+03  0.152E-02    2.75       0.0  T
   2   -117.1854770 -0.279879E-06  0.766E-03    2.75       1.4  T
   3   -117.1854769  0.205035E-07  0.199E-03    2.75       5.6  T
   4   -117.1854770 -0.371087E-07  0.105E-03    2.75      10.6  T
   5   -117.1854770 -0.387136E-07  0.278E-04    2.75      39.9  T
   6   -117.1854770 -0.104727E-08  0.145E-04    2.75      76.6  T
     SCC iter.                  ...        0 min,  0.800 sec
     gradient                   ...        0 min,  0.179 sec
 * total energy  :  -115.5272748 Eh     change       -0.3952877E-05 Eh
   gradient norm :     0.0010597 Eh/α   predicted    -0.3833453E-05 (  -3.02%)
   displ. norm   :     0.0489898 α      lambda       -0.6340828E-05
   maximum displ.:     0.0225615 α      in ANC's #1, #10, #4, ...

........................................................................
.............................. CYCLE   46 ..............................
........................................................................

 iter      E             dE          RMSdq      gap      omega  full diag
   1   -117.1852339 -0.117185E+03  0.125E-02    2.75       0.0  T
   2   -117.1852342 -0.269052E-06  0.588E-03    2.75       1.9  T
   3   -117.1852342 -0.138689E-07  0.153E-03    2.75       7.3  T
   4   -117.1852342 -0.181548E-07  0.758E-04    2.75      14.7  T
   5   -117.1852342 -0.682802E-08  0.290E-04    2.75      38.4  T
     SCC iter.                  ...        0 min,  0.549 sec
     gradient                   ...        0 min,  0.152 sec
 * total energy  :  -115.5272773 Eh     change       -0.2523155E-05 Eh
   gradient norm :     0.0010019 Eh/α   predicted    -0.3174589E-05 (  25.82%)
   displ. norm   :     0.0152019 α      lambda       -0.2547833E-05
   maximum displ.:     0.0058485 α      in ANC's #14, #21, #19, ...

........................................................................
.............................. CYCLE   47 ..............................
........................................................................

 iter      E             dE          RMSdq      gap      omega  full diag
   1   -117.1852241 -0.117185E+03  0.456E-03    2.75       0.0  T
   2   -117.1852241 -0.429539E-07  0.231E-03    2.75       4.8  T
   3   -117.1852241  0.813189E-08  0.688E-04    2.75      16.2  T
   4   -117.1852241 -0.140835E-07  0.321E-04    2.75      34.6  T
     SCC iter.                  ...        0 min,  0.601 sec
     gradient                   ...        0 min,  0.114 sec
 * total energy  :  -115.5272798 Eh     change       -0.2440806E-05 Eh
   gradient norm :     0.0004745 Eh/α   predicted    -0.1276188E-05 ( -47.71%)
   displ. norm   :     0.0224158 α      lambda       -0.2310291E-05
   maximum displ.:     0.0088236 α      in ANC's #4, #25, #5, ...

........................................................................
.............................. CYCLE   48 ..............................
........................................................................

 iter      E             dE          RMSdq      gap      omega  full diag
   1   -117.1852258 -0.117185E+03  0.643E-03    2.75       0.0  T
   2   -117.1852259 -0.103529E-06  0.301E-03    2.75       3.7  T
   3   -117.1852259 -0.264554E-08  0.957E-04    2.75      11.6  T
   4   -117.1852259 -0.818741E-08  0.495E-04    2.75      22.5  T
     SCC iter.                  ...        0 min,  0.670 sec
     gradient                   ...        0 min,  0.115 sec
 * total energy  :  -115.5272810 Eh     change       -0.1265444E-05 Eh
   gradient norm :     0.0004443 Eh/α   predicted    -0.1157151E-05 (  -8.56%)
   displ. norm   :     0.0404678 α      lambda       -0.2553405E-05
   maximum displ.:     0.0165963 α      in ANC's #4, #5, #10, ...

........................................................................
.............................. CYCLE   49 ..............................
........................................................................

 iter      E             dE          RMSdq      gap      omega  full diag
   1   -117.1852121 -0.117185E+03  0.630E-03    2.75       0.0  T
   2   -117.1852122 -0.557976E-07  0.337E-03    2.75       3.3  T
   3   -117.1852121  0.165706E-07  0.100E-03    2.75      11.1  T
   4   -117.1852122 -0.175938E-07  0.506E-04    2.75      22.0  T
   5   -117.1852122 -0.110243E-07  0.173E-04    2.75      64.1  T
     SCC iter.                  ...        0 min,  0.494 sec
     gradient                   ...        0 min,  0.152 sec
 * total energy  :  -115.5272837 Eh     change       -0.2694470E-05 Eh
   gradient norm :     0.0005573 Eh/α   predicted    -0.1279047E-05 ( -52.53%)
   displ. norm   :     0.0748044 α      lambda       -0.3040762E-05
   maximum displ.:     0.0313814 α      in ANC's #4, #5, #10, ...

........................................................................
.............................. CYCLE   50 ..............................
........................................................................

 iter      E             dE          RMSdq      gap      omega  full diag
   1   -117.1851679 -0.117185E+03  0.900E-03    2.75       0.0  T
   2   -117.1851680 -0.457960E-07  0.519E-03    2.75       2.1  T
   3   -117.1851679  0.238223E-07  0.100E-03    2.75      11.1  T
   4   -117.1851680 -0.257393E-07  0.460E-04    2.75      24.2  T
   5   -117.1851680 -0.970365E-08  0.160E-04    2.75      69.6  T
     SCC iter.                  ...        0 min,  0.526 sec
     gradient                   ...        0 min,  0.168 sec
 * total energy  :  -115.5272869 Eh     change       -0.3228667E-05 Eh
   gradient norm :     0.0007208 Eh/α   predicted    -0.1527288E-05 ( -52.70%)
   displ. norm   :     0.0950444 α      lambda       -0.3221406E-05
   maximum displ.:     0.0412993 α      in ANC's #4, #5, #25, ...

........................................................................
.............................. CYCLE   51 ..............................
........................................................................

 iter      E             dE          RMSdq      gap      omega  full diag
   1   -117.1852067 -0.117185E+03  0.108E-02    2.75       0.0  T
   2   -117.1852067 -0.396917E-07  0.637E-03    2.75       1.7  T
   3   -117.1852067  0.490482E-07  0.106E-03    2.75      10.4  T
   4   -117.1852067 -0.617281E-07  0.349E-04    2.75      31.8  T
   5   -117.1852067 -0.228658E-08  0.160E-04    2.75      69.3  T
     SCC iter.                  ...        0 min,  0.415 sec
     gradient                   ...        0 min,  0.112 sec
 * total energy  :  -115.5272902 Eh     change       -0.3287317E-05 Eh
   gradient norm :     0.0007296 Eh/α   predicted    -0.1619512E-05 ( -50.73%)
   displ. norm   :     0.0840979 α      lambda       -0.2889812E-05
   maximum displ.:     0.0373400 α      in ANC's #4, #5, #3, ...

........................................................................
.............................. CYCLE   52 ..............................
........................................................................

 iter      E             dE          RMSdq      gap      omega  full diag
   1   -117.1852796 -0.117185E+03  0.984E-03    2.75       0.0  T
   2   -117.1852796 -0.363880E-07  0.578E-03    2.75       1.9  T
   3   -117.1852796  0.552696E-07  0.111E-03    2.75      10.0  T
   4   -117.1852796 -0.664215E-07  0.373E-04    2.75      29.8  T
   5   -117.1852796 -0.270884E-08  0.155E-04    2.75      71.7  T
     SCC iter.                  ...        0 min,  0.408 sec
     gradient                   ...        0 min,  0.112 sec
 * total energy  :  -115.5272933 Eh     change       -0.3112096E-05 Eh
   gradient norm :     0.0004875 Eh/α   predicted    -0.1450960E-05 ( -53.38%)
   displ. norm   :     0.0847655 α      lambda       -0.2865998E-05
   maximum displ.:     0.0368342 α      in ANC's #4, #5, #3, ...

........................................................................
.............................. CYCLE   53 ..............................
........................................................................

 iter      E             dE          RMSdq      gap      omega  full diag
   1   -117.1853888 -0.117185E+03  0.108E-02    2.75       0.0  T
   2   -117.1853889 -0.551715E-07  0.623E-03    2.75       1.8  T
   3   -117.1853888  0.772861E-07  0.134E-03    2.75       8.3  T
   4   -117.1853889 -0.874011E-07  0.558E-04    2.75      19.9  T
   5   -117.1853889 -0.107201E-07  0.171E-04    2.75      64.8  T
     SCC iter.                  ...        0 min,  0.671 sec
     gradient                   ...        0 min,  0.115 sec
 * total energy  :  -115.5272963 Eh     change       -0.2962969E-05 Eh
   gradient norm :     0.0002950 Eh/α   predicted    -0.1438216E-05 ( -51.46%)
   displ. norm   :     0.0773807 α      lambda       -0.1814587E-05
   maximum displ.:     0.0324311 α      in ANC's #4, #3, #5, ...

........................................................................
.............................. CYCLE   54 ..............................
........................................................................

 iter      E             dE          RMSdq      gap      omega  full diag
   1   -117.1853428 -0.117185E+03  0.994E-03    2.75       0.0  T
   2   -117.1853429 -0.432598E-07  0.572E-03    2.75       1.9  T
   3   -117.1853428  0.585893E-07  0.115E-03    2.75       9.6  T
   4   -117.1853429 -0.652155E-07  0.512E-04    2.75      21.7  T
   5   -117.1853429 -0.103867E-07  0.139E-04    2.75      79.7  T
     SCC iter.                  ...        0 min,  0.652 sec
     gradient                   ...        0 min,  0.156 sec
 * total energy  :  -115.5272982 Eh     change       -0.1903452E-05 Eh
   gradient norm :     0.0002924 Eh/α   predicted    -0.9132987E-06 ( -52.02%)
   displ. norm   :     0.0405784 α      lambda       -0.1214510E-05
   maximum displ.:     0.0183695 α      in ANC's #3, #2, #4, ...

........................................................................
.............................. CYCLE   55 ..............................
........................................................................

 iter      E             dE          RMSdq      gap      omega  full diag
   1   -117.1854579 -0.117185E+03  0.599E-03    2.75       0.0  T
   2   -117.1854579 -0.278875E-07  0.337E-03    2.75       3.3  T
   3   -117.1854579  0.152342E-07  0.730E-04    2.75      15.2  T
   4   -117.1854579 -0.168332E-07  0.370E-04    2.75      30.0  T
     SCC iter.                  ...        0 min,  0.537 sec
     gradient                   ...        0 min,  0.115 sec
 * total energy  :  -115.5272993 Eh     change       -0.1128798E-05 Eh
   gradient norm :     0.0004435 Eh/α   predicted    -0.6105087E-06 ( -45.92%)
   displ. norm   :     0.0403499 α      lambda       -0.8334088E-06
   maximum displ.:     0.0191184 α      in ANC's #3, #2, #4, ...

........................................................................
.............................. CYCLE   56 ..............................
........................................................................

 iter      E             dE          RMSdq      gap      omega  full diag
   1   -117.1852872 -0.117185E+03  0.543E-03    2.75       0.0  T
   2   -117.1852872 -0.206101E-07  0.313E-03    2.75       3.6  T
   3   -117.1852872  0.280345E-07  0.712E-04    2.75      15.6  T
   4   -117.1852873 -0.322341E-07  0.279E-04    2.75      39.8  T
     SCC iter.                  ...        0 min,  0.478 sec
     gradient                   ...        0 min,  0.169 sec
 * total energy  :  -115.5273001 Eh     change       -0.7194342E-06 Eh
   gradient norm :     0.0002639 Eh/α   predicted    -0.4204748E-06 ( -41.55%)
   displ. norm   :     0.0165605 α      lambda       -0.4666795E-06
   maximum displ.:     0.0063973 α      in ANC's #6, #3, #13, ...

........................................................................
.............................. CYCLE   57 ..............................
........................................................................

 iter      E             dE          RMSdq      gap      omega  full diag
   1   -117.1853453 -0.117185E+03  0.210E-03    2.75       0.0  T
   2   -117.1853453 -0.417344E-08  0.116E-03    2.75       9.5  T
   3   -117.1853453  0.149603E-08  0.286E-04    2.75      38.8  T
   4   -117.1853453 -0.203622E-08  0.147E-04    2.75      75.3  T
     SCC iter.                  ...        0 min,  0.421 sec
     gradient                   ...        0 min,  0.124 sec
 * total energy  :  -115.5273006 Eh     change       -0.5082828E-06 Eh
   gradient norm :     0.0001375 Eh/α   predicted    -0.2380680E-06 ( -53.16%)
   displ. norm   :     0.0181556 α      lambda       -0.4090843E-06
   maximum displ.:     0.0076700 α      in ANC's #3, #6, #2, ...

........................................................................
.............................. CYCLE   58 ..............................
........................................................................

 iter      E             dE          RMSdq      gap      omega  full diag
   1   -117.1853533 -0.117185E+03  0.226E-03    2.75       0.0  T
   2   -117.1853533 -0.455699E-08  0.124E-03    2.75       8.9  T
   3   -117.1853533  0.663093E-09  0.307E-04    2.75      36.2  T
   4   -117.1853533 -0.105565E-08  0.171E-04    2.75      65.1  T
     SCC iter.                  ...        0 min,  0.497 sec
     gradient                   ...        0 min,  0.115 sec
 * total energy  :  -115.5273010 Eh     change       -0.4698177E-06 Eh
   gradient norm :     0.0001591 Eh/α   predicted    -0.2068580E-06 ( -55.97%)
   displ. norm   :     0.0227872 α      lambda       -0.4433768E-06
   maximum displ.:     0.0101299 α      in ANC's #3, #2, #7, ...

........................................................................
.............................. CYCLE   59 ..............................
........................................................................

 iter      E             dE          RMSdq      gap      omega  full diag
   1   -117.1853486 -0.117185E+03  0.287E-03    2.75       0.0  T
   2   -117.1853486 -0.567809E-08  0.159E-03    2.75       7.0  T
   3   -117.1853486  0.312383E-09  0.353E-04    2.75      31.5  T
   4   -117.1853486 -0.224901E-09  0.206E-04    2.75      54.1  T
     SCC iter.                  ...        0 min,  0.499 sec
     gradient                   ...        0 min,  0.136 sec
 * total energy  :  -115.5273016 Eh     change       -0.5172306E-06 Eh
   gradient norm :     0.0002473 Eh/α   predicted    -0.2229823E-06 ( -56.89%)
   displ. norm   :     0.0277937 α      lambda       -0.4716152E-06
   maximum displ.:     0.0127702 α      in ANC's #3, #2, #7, ...

........................................................................
.............................. CYCLE   60 ..............................
........................................................................

 iter      E             dE          RMSdq      gap      omega  full diag
   1   -117.1853560 -0.117185E+03  0.344E-03    2.75       0.0  T
   2   -117.1853560 -0.758034E-08  0.191E-03    2.75       5.8  T
   3   -117.1853560  0.200842E-08  0.427E-04    2.75      26.0  T
   4   -117.1853560 -0.196675E-08  0.255E-04    2.75      43.6  T
     SCC iter.                  ...        0 min,  0.532 sec
     gradient                   ...        0 min,  0.168 sec
 * total energy  :  -115.5273021 Eh     change       -0.5441209E-06 Eh
   gradient norm :     0.0002572 Eh/α   predicted    -0.2379063E-06 ( -56.28%)
   displ. norm   :     0.0275874 α      lambda       -0.3925980E-06
   maximum displ.:     0.0140023 α      in ANC's #2, #3, #7, ...

........................................................................
.............................. CYCLE   61 ..............................
........................................................................

 iter      E             dE          RMSdq      gap      omega  full diag
   1   -117.1853376 -0.117185E+03  0.335E-03    2.75       0.0  T
[...]
       114                         -0.3174827              -8.6391
       115                         -0.2785705              -7.5803
       116                         -0.2432477              -6.6191
       117                         -0.2348046              -6.3894
       ...                                ...                  ...
       216                          1.1181533              30.4265
      -------------------------------------------------------------
                  HL-Gap            0.1011727 Eh            2.7530 eV
             Fermi-level           -0.4242819 Eh          -11.5453 eV

     #   Z          covCN         q      C6AA      α(0)
     1   6 C        3.644     0.029    20.428     6.497
     2   8 O        1.706    -0.253    18.195     5.759
     3   6 C        2.898     0.145    24.840     8.172
     4   6 C        2.919    -0.065    29.623     8.925
     5   6 C        2.920    -0.025    28.632     8.775
     6   6 C        2.919    -0.039    28.966     8.826
     7   6 C        2.960    -0.030    28.738     8.793
     8   6 C        2.973     0.008    27.832     8.654
     9  16 S        2.079    -0.014   141.646    20.031
    10  16 S        1.902    -0.062   143.627    20.171
    11  15 P        4.332     0.583   136.844    21.014
    12   7 N        2.679    -0.181    24.926     7.415
    13   6 C        3.925     0.042    19.802     6.324
    14   6 C        3.755    -0.121    22.871     6.819
    15   6 C        3.753    -0.128    23.013     6.841
    16   6 C        3.959     0.083    19.138     6.216
    17   6 C        3.759    -0.125    22.956     6.831
    18   6 C        3.780    -0.135    23.122     6.850
    19   6 C        3.759    -0.122    22.882     6.820
    20   8 O        1.659    -0.279    18.639     5.828
    21   6 C        3.070     0.116    25.388     8.262
    22   6 C        2.964    -0.002    28.081     8.692
    23   6 C        3.758    -0.109    22.631     6.782
    24   6 C        2.930    -0.041    29.012     8.833
    25   6 C        2.913    -0.041    29.012     8.832
    26   6 C        3.027     0.010    27.776     8.645
    27   6 C        3.014    -0.019    28.456     8.750
    28   6 C        3.968     0.025    20.082     6.367
    29   6 C        3.855    -0.060    21.618     6.613
    30   6 C        3.831    -0.065    21.722     6.631
    31   6 C        3.856    -0.058    21.583     6.607
    32   6 C        3.833    -0.065    21.729     6.632
    33   6 C        3.024     0.011    27.749     8.641
    34   6 C        2.914    -0.038    28.946     8.822
    35   6 C        2.930    -0.038    28.947     8.823
    36   6 C        2.963    -0.001    28.047     8.687
    37   6 C        3.757    -0.112    22.687     6.791
    38   6 C        3.221     0.107    24.949     8.120
    39   6 C        3.024    -0.018    28.430     8.746
    40   8 O        1.657    -0.259    18.311     5.777
    41   1 H        0.924     0.057     2.237     2.339
    42   1 H        0.925     0.076     2.025     2.225
    43   1 H        0.924     0.048     2.344     2.394
    44   1 H        0.926     0.057     2.240     2.340
    45   1 H        0.926     0.059     2.214     2.327
    46   1 H        0.926     0.055     2.254     2.348
    47   1 H        0.926     0.052     2.298     2.371
    48   1 H        0.925     0.071     2.076     2.253
    49   1 H        0.925     0.067     2.120     2.277
    50   1 H        0.925     0.051     2.311     2.377
    51   1 H        0.925     0.048     2.351     2.398
    52   1 H        0.925     0.063     2.167     2.302
    53   1 H        0.925     0.051     2.302     2.373
    54   1 H        0.925     0.060     2.200     2.319
    55   1 H        0.925     0.068     2.107     2.270
    56   1 H        0.925     0.043     2.409     2.427
    57   1 H        0.925     0.057     2.233     2.337
    58   1 H        0.925     0.056     2.241     2.341
    59   1 H        0.925     0.066     2.135     2.285
    60   1 H        0.925     0.061     2.189     2.314
    61   1 H        0.925     0.057     2.239     2.340
    62   1 H        0.925     0.066     2.133     2.284
    63   1 H        0.925     0.052     2.296     2.369
    64   1 H        0.925     0.052     2.289     2.366
    65   1 H        0.925     0.052     2.299     2.371
    66   1 H        0.925     0.060     2.201     2.320
    67   1 H        0.926     0.059     2.206     2.323
    68   1 H        0.926     0.060     2.195     2.317
    69   1 H        0.925     0.052     2.298     2.371
    70   1 H        0.924     0.040     2.453     2.449
    71   1 H        0.925     0.059     2.216     2.328
    72   1 H        0.924     0.061     2.192     2.315
    73   1 H        0.924     0.037     2.485     2.465
    74   1 H        0.925     0.051     2.312     2.378
    75   1 H        0.925     0.060     2.202     2.321
    76   1 H        0.924     0.061     2.185     2.311
    77   1 H        0.926     0.062     2.174     2.306
    78   1 H        0.926     0.063     2.163     2.300
    79   1 H        0.924     0.047     2.357     2.401
    80   1 H        0.925     0.067     2.118     2.276
    81   1 H        0.925     0.065     2.142     2.289

 Mol. C6AA /au·bohr⁶  :      77902.917312
 Mol. C8AA /au·bohr⁸  :    2052092.558048
 Mol. α(0) /au        :        437.430812


Wiberg/Mayer (AO) data.
largest (>0.10) Wiberg bond orders for each atom

 ---------------------------------------------------------------------------
     #   Z sym  total        # sym  WBO       # sym  WBO       # sym  WBO
 ---------------------------------------------------------------------------
     1   6 C    3.933 --    42 H    0.978    43 H    0.976    41 H    0.976
                             2 O    0.972
     2   8 O    2.271 --     3 C    1.089     1 C    0.972
     3   6 C    3.940 --     4 C    1.364     8 C    1.314     2 O    1.089
     4   6 C    3.987 --     5 C    1.444     3 C    1.364    44 H    0.963
                             7 C    0.103
     5   6 C    3.981 --     4 C    1.444     6 C    1.430    45 H    0.969
     6   6 C    3.990 --     7 C    1.432     5 C    1.430    46 H    0.968
     7   6 C    3.988 --     6 C    1.432     8 C    1.419    47 H    0.965
                             4 C    0.103
     8   6 C    3.951 --     7 C    1.419     3 C    1.314     9 S    0.994
     9  16 S    2.375 --    10 S    1.173     8 C    0.994
    10  16 S    2.423 --     9 S    1.173    11 P    0.964
    11  15 P    5.085 --    40 O    1.281    20 O    1.259    12 N    1.226
                            10 S    0.964
    12   7 N    3.359 --    11 P    1.226    13 C    0.932    16 C    0.925
    13   6 C    3.951 --    14 C    1.009    15 C    1.004    48 H    0.949
                            12 N    0.932
    14   6 C    3.992 --    13 C    1.009    51 H    0.983    49 H    0.979
                            50 H    0.973
    15   6 C    3.990 --    13 C    1.004    54 H    0.981    53 H    0.979
                            52 H    0.979
    16   6 C    3.953 --    17 C    0.998    18 C    0.995    19 C    0.995
                            12 N    0.925
    17   6 C    3.988 --    16 C    0.998    57 H    0.981    55 H    0.979
                            56 H    0.977
    18   6 C    3.990 --    16 C    0.995    59 H    0.977    60 H    0.973
                            58 H    0.962
    19   6 C    3.989 --    16 C    0.995    63 H    0.978    62 H    0.977
                            61 H    0.975
    20   8 O    2.386 --    11 P    1.259    21 C    0.882
    21   6 C    3.877 --    27 C    1.407    22 C    1.350    20 O    0.882
    22   6 C    3.986 --    24 C    1.423    21 C    1.350    23 C    1.027
                            26 C    0.103
    23   6 C    3.994 --    22 C    1.027    66 H    0.982    65 H    0.970
                            64 H    0.957
    24   6 C    3.984 --    22 C    1.423    25 C    1.423    67 H    0.966
                            27 C    0.103
    25   6 C    3.988 --    26 C    1.438    24 C    1.423    68 H    0.966
    26   6 C    3.984 --    25 C    1.438    27 C    1.345    30 C    1.016
                            22 C    0.103
    27   6 C    3.982 --    21 C    1.407    26 C    1.345    28 C    0.990
                            24 C    0.103
    28   6 C    3.988 --    39 C    0.990    27 C    0.990    31 C    0.957
                            29 C    0.956
    29   6 C    3.993 --    30 C    1.003    70 H    0.979    69 H    0.977
                            28 C    0.956
    30   6 C    3.994 --    26 C    1.016    29 C    1.003    71 H    0.966
                            72 H    0.956
    31   6 C    3.993 --    32 C    1.002    74 H    0.977    73 H    0.977
                            28 C    0.957
    32   6 C    3.994 --    33 C    1.015    31 C    1.002    75 H    0.965
                            76 H    0.957
    33   6 C    3.985 --    34 C    1.435    39 C    1.347    32 C    1.015
                            36 C    0.102
    34   6 C    3.988 --    33 C    1.435    35 C    1.427    77 H    0.966
    35   6 C    3.985 --    34 C    1.427    36 C    1.418    78 H    0.966
                            39 C    0.103
    36   6 C    3.985 --    35 C    1.418    38 C    1.352    37 C    1.030
                            33 C    0.102
    37   6 C    3.992 --    36 C    1.030    81 H    0.982    80 H    0.963
                            79 H    0.962
    38   6 C    3.875 --    39 C    1.407    36 C    1.352    40 O    0.878
    39   6 C    3.982 --    38 C    1.407    33 C    1.347    28 C    0.990
                            35 C    0.103
    40   8 O    2.394 --    11 P    1.281    38 C    0.878
    41   1 H    0.997 --     1 C    0.976
    42   1 H    0.994 --     1 C    0.978
    43   1 H    0.998 --     1 C    0.976
    44   1 H    0.997 --     4 C    0.963
    45   1 H    0.996 --     5 C    0.969
    46   1 H    0.996 --     6 C    0.968
    47   1 H    0.997 --     7 C    0.965
    48   1 H    0.994 --    13 C    0.949
    49   1 H    0.994 --    14 C    0.979
    50   1 H    0.997 --    14 C    0.973
    51   1 H    0.998 --    14 C    0.983
    52   1 H    0.996 --    15 C    0.979
    53   1 H    0.997 --    15 C    0.979
    54   1 H    0.995 --    15 C    0.981
    55   1 H    0.995 --    17 C    0.979
    56   1 H    0.998 --    17 C    0.977
    57   1 H    0.997 --    17 C    0.981
    58   1 H    0.997 --    18 C    0.962
    59   1 H    0.995 --    18 C    0.977
    60   1 H    0.996 --    18 C    0.973
    61   1 H    0.997 --    19 C    0.975
    62   1 H    0.995 --    19 C    0.977
    63   1 H    0.997 --    19 C    0.978
    64   1 H    0.997 --    23 C    0.957
    65   1 H    0.997 --    23 C    0.970
    66   1 H    0.996 --    23 C    0.982
    67   1 H    0.995 --    24 C    0.966
    68   1 H    0.996 --    25 C    0.966
    69   1 H    0.997 --    29 C    0.977
    70   1 H    0.998 --    29 C    0.979
    71   1 H    0.995 --    30 C    0.966
    72   1 H    0.996 --    30 C    0.956
    73   1 H    0.999 --    31 C    0.977
    74   1 H    0.997 --    31 C    0.977
    75   1 H    0.995 --    32 C    0.965
    76   1 H    0.996 --    32 C    0.957
    77   1 H    0.995 --    34 C    0.966
    78   1 H    0.995 --    35 C    0.966
    79   1 H    0.997 --    37 C    0.962
    80   1 H    0.995 --    37 C    0.963
    81   1 H    0.995 --    37 C    0.982
 ---------------------------------------------------------------------------

Topologies differ in total number of bonds
Writing topology from bond orders to xtbtopo.mol

molecular dipole:
                 x           y           z       tot (Debye)
 q only:        0.444      -0.741       0.098
   full:        0.718      -0.718       0.324       2.710
molecular quadrupole (traceless):
                xx          xy          yy          xz          yz          zz
 q only:       16.419      -8.794      -6.482       2.020      -0.272      -9.936
  q+dip:       20.051      -7.713      -9.255       3.399       0.227     -10.796
   full:       19.783      -5.741      -6.085       3.374       0.526     -13.698

           -------------------------------------------------
          |                Geometry Summary                 |
           -------------------------------------------------

      molecular mass/u    :      594.7881102
   center of mass at/Å    :        0.0215039       0.3465937      -0.1932437
  moments of inertia/u·Å² :        0.4599040E+04   0.5803831E+04   0.6079727E+04
rotational constants/cm⁻¹ :        0.3665467E-02   0.2904570E-02   0.2772761E-02

 * 74 selected distances

     #   Z          #   Z                                           value/Å
     1   6 C        2   8 O                                       1.4110540
     2   8 O        3   6 C                                       1.3518889
     3   6 C        4   6 C                                       1.3917010
     4   6 C        5   6 C                                       1.3842796
     5   6 C        6   6 C                                       1.3848230
     6   6 C        7   6 C                                       1.3834066
     3   6 C        8   6 C                                       1.4012619
     7   6 C        8   6 C                                       1.3830439
     9  16 S       10  16 S                                       2.0336396
    10  16 S       11  15 P                                       2.1250829 (max)
    11  15 P       12   7 N                                       1.6445626
    12   7 N       13   6 C                                       1.4806887
    13   6 C       14   6 C                                       1.5249756
    13   6 C       15   6 C                                       1.5283082
    16   6 C       17   6 C                                       1.5294369
    16   6 C       18   6 C                                       1.5349773
    16   6 C       19   6 C                                       1.5365671
    11  15 P       20   8 O                                       1.5894189
    21   6 C       22   6 C                                       1.3977317
    22   6 C       24   6 C                                       1.3874869
    24   6 C       25   6 C                                       1.3856742
    25   6 C       26   6 C                                       1.3775656
    21   6 C       27   6 C                                       1.3810878
    26   6 C       27   6 C                                       1.3997097
    29   6 C       30   6 C                                       1.5320596
    31   6 C       32   6 C                                       1.5352833
    33   6 C       34   6 C                                       1.3785394
    34   6 C       35   6 C                                       1.3867860
    35   6 C       36   6 C                                       1.3890343
    36   6 C       38   6 C                                       1.3971380
    33   6 C       39   6 C                                       1.3965883
    38   6 C       39   6 C                                       1.3772422
    11  15 P       40   8 O                                       1.5793628
     1   6 C       41   1 H                                       1.0927355
     1   6 C       42   1 H                                       1.0882104
     1   6 C       43   1 H                                       1.0939180
     4   6 C       44   1 H                                       1.0777434 (min)
     5   6 C       45   1 H                                       1.0788991
     6   6 C       46   1 H                                       1.0782345
     7   6 C       47   1 H                                       1.0787251
    13   6 C       48   1 H                                       1.0887051
    14   6 C       49   1 H                                       1.0868799
    14   6 C       50   1 H                                       1.0864731
    14   6 C       51   1 H                                       1.0874587
    15   6 C       52   1 H                                       1.0841627
    15   6 C       53   1 H                                       1.0861466
    15   6 C       54   1 H                                       1.0875502
    17   6 C       55   1 H                                       1.0867125
    17   6 C       56   1 H                                       1.0897309
    17   6 C       57   1 H                                       1.0865621
    18   6 C       58   1 H                                       1.0859816
    18   6 C       59   1 H                                       1.0870110
    18   6 C       60   1 H                                       1.0853622
    19   6 C       61   1 H                                       1.0863595
    19   6 C       62   1 H                                       1.0862100
    19   6 C       63   1 H                                       1.0867255
    23   6 C       64   1 H                                       1.0886616
    23   6 C       65   1 H                                       1.0896521
    23   6 C       66   1 H                                       1.0862467
    24   6 C       67   1 H                                       1.0789777
    25   6 C       68   1 H                                       1.0784745
    29   6 C       69   1 H                                       1.0866578
    29   6 C       70   1 H                                       1.0919199
    30   6 C       71   1 H                                       1.0894737
    30   6 C       72   1 H                                       1.0920376
    31   6 C       73   1 H                                       1.0915824
    31   6 C       74   1 H                                       1.0869631
    32   6 C       75   1 H                                       1.0894233
    32   6 C       76   1 H                                       1.0918172
    34   6 C       77   1 H                                       1.0784203
    35   6 C       78   1 H                                       1.0786666
    37   6 C       79   1 H                                       1.0903165
    37   6 C       80   1 H                                       1.0897633
    37   6 C       81   1 H                                       1.0857289

 * 8 distinct bonds (by element types)

   Z      Z             #   av. dist./Å        max./Å        min./Å
   1 H    6 C          41     1.0863727     1.0939180     1.0777434
   6 C    6 C          25     1.4281883     1.5365671     1.3772422
   6 C    7 N           1     1.4806887     1.4806887     1.4806887
   6 C    8 O           2     1.3814714     1.4110540     1.3518889
   7 N   15 P           1     1.6445626     1.6445626     1.6445626
   8 O   15 P           2     1.5843908     1.5894189     1.5793628
  15 P   16 S           1     2.1250829     2.1250829     2.1250829
  16 S   16 S           1     2.0336396     2.0336396     2.0336396


optimized geometry written to: xtbopt.xyz


           -------------------------------------------------
          | TOTAL ENERGY             -115.527307319274 Eh   |
          | GRADIENT NORM               0.000029439948 Eh/α |
          | HOMO-LUMO GAP               2.753049160325 eV   |
           -------------------------------------------------

------------------------------------------------------------------------
 * finished run on 2024/12/16 at 21:14:41.163     
------------------------------------------------------------------------
 total:
 * wall-time:     0 d,  0 h,  1 min, 10.938 sec
 *  cpu-time:     0 d,  0 h,  9 min, 17.176 sec
 * ratio c/w:     7.854 speedup
 SCF:
 * wall-time:     0 d,  0 h,  0 min,  2.266 sec
 *  cpu-time:     0 d,  0 h,  0 min, 17.968 sec
 * ratio c/w:     7.929 speedup
 ANC optimizer:
 * wall-time:     0 d,  0 h,  1 min,  8.310 sec
 *  cpu-time:     0 d,  0 h,  8 min, 57.725 sec
 * ratio c/w:     7.872 speedup

