81
 energy: -115.527307319274 gnorm: 0.000029439948 xtb: 6.7.1 (edcfbbe)
C            5.42079614445855        1.39856294824026       -1.39240061963563
O            4.04345923885673        1.65138157879963       -1.21891041915377
C            3.60695168231534        2.12554654711974       -0.03053679260653
C            4.38821543253602        2.30692891194907        1.10681039395867
C            3.81842306290304        2.77858404312961        2.27689919297428
C            2.46685409839510        3.07289496157229        2.34305625771364
C            1.67557459405281        2.89217959874468        1.22277409295543
C            2.24013423827690        2.42352817242642        0.05040545260575
S            1.21073914201564        2.21331759044147       -1.38888030924198
S            1.49217444919987        0.24774821374432       -1.82822113109310
P            0.15765773971860       -0.73915491536753       -0.50117031725798
N            0.55131814855001       -2.21798743628589        0.10105178317443
C           -0.44659324550449       -3.31142278942245        0.06926295207103
C           -1.63232285046696       -2.96525401929280        0.96355745026789
C           -0.90108635953732       -3.74273593837718       -1.32469919513719
C            1.98253245685170       -2.58408856223548        0.30769778827228
C            2.54463502585510       -3.23019019353949       -0.95949213017343
C            2.80421956009371       -1.32858205001575        0.63125371540948
C            2.11237599209320       -3.56368206203667        1.48437749973891
O            0.00198775287716        0.38776615582362        0.60881508239079
C           -1.09556648811067        0.42015897592900        1.50272439560429
C           -0.88817251114633        0.02108685637601        2.82612252661590
C            0.48243868543806       -0.32486732499824        3.31849211281503
C           -1.97936140337211       -0.02898421619521        3.68164527492596
C           -3.25814906276312        0.27285882993502        3.24154811607823
C           -3.42979656202770        0.71299473992301        1.94752180481301
C           -2.34131481358207        0.83689487597207        1.07629102599825
C           -2.79382492591258        1.52608348827973       -0.18478170191260
C           -4.29544535448505        1.14228182012423       -0.21354420128616
C           -4.70582130089178        1.09303134088825        1.26170907400802
C           -2.64287882393402        3.06355269106071       -0.07158853113033
C           -2.81854542955842        3.57192232467851       -1.50957177938855
C           -2.33290411578018        2.41820959044948       -2.33300173288144
C           -2.00437759498545        2.37903183175645       -3.67124908324993
C           -1.52756436009565        1.19519905845522       -4.21380241809906
C           -1.29361757941388        0.07378020862984       -3.42824241991634
C           -0.72823939495102       -1.17969143285306       -4.01757945587415
C           -1.61189096365273        0.14901612699443       -2.06992144842291
C           -2.18169317132850        1.28264702916296       -1.53419555544647
O           -1.24295728882907       -0.91961341851857       -1.20834676505889
H            6.01339945461322        2.30284891639044       -1.23378536697225
H            5.52803036216741        1.07234265989499       -2.42501037613097
H            5.76872872280185        0.60729655398108       -0.72195540806077
H            5.44407642995515        2.09249078472476        1.08026810705466
H            4.44266060675859        2.91770471832105        3.14580425682096
H            2.03131368221907        3.44354353384400        3.25712055738718
H            0.62078567801982        3.11667501918072        1.24865300987512
H            0.06049751330366       -4.16338961327097        0.51902959619727
H           -2.30495842631617       -3.81758706485819        1.01252175561475
H           -2.18818098127802       -2.11502742540320        0.57812253519365
H           -1.29950674355412       -2.73179936796046        1.97216968719232
H           -1.68187095779990       -3.09634544275082       -1.70935924795561
H           -0.06991907186340       -3.74801515957617       -2.02387529460266
H           -1.30083124310419       -4.75240427314253       -1.26520930690866
H            3.60491345510904       -3.42826343887727       -0.82712719740184
H            2.42170677399453       -2.56034075187388       -1.81019977461144
H            2.04951976159377       -4.17297283156652       -1.17545244109845
H            2.22693577932967       -0.60172308977581        1.19496930459097
H            3.66765177997017       -1.59909063174103        1.23366762020672
H            3.17653397249148       -0.86188772970725       -0.27516194646757
H            1.82735749624287       -4.57678801508466        1.21501229900312
H            3.15101574063040       -3.60612305979746        1.79946183733725
H            1.51279001558260       -3.24403794627886        2.33249090258338
H            0.81910069759931       -1.26790346162775        2.89126215951713
H            1.19393603413458        0.45183663314832        3.03948678454093
H            0.47993123499986       -0.42148126274336        4.40043073248043
H           -1.82430160322687       -0.33321534982647        4.70516496624585
H           -4.10221152360536        0.17806064042408        3.90613732497910
H           -4.88522161434522        1.84469397091168       -0.79630145956332
H           -4.40215788274793        0.15256277122652       -0.66227298125258
H           -5.50094091683099        0.37280019910573        1.45145774130427
H           -5.05262942306361        2.06705355666324        1.61320698660606
H           -1.63629299476920        3.29881421846896        0.27910907660569
H           -3.35807640046680        3.49619343737151        0.62325179379575
H           -2.24329234955733        4.47660953252819       -1.70313777429045
H           -3.86467506571239        3.79134010235332       -1.73213226156827
H           -2.11392834235452        3.25547915452465       -4.28998078313155
H           -1.29178450063617        1.14796602720999       -5.26532437128056
H            0.06978718882921       -1.58486621961995       -3.39486225824309
H           -1.50675344357278       -1.93778541401824       -4.10000067868410
H           -0.33150373975899       -0.98619803220886       -5.00953109225831
