93
 energy: -133.693740779339 gnorm: 0.144460846339 xtb: 6.7.1 (edcfbbe)
C           -0.23108800000000        2.31987500000000        0.64604800000000
N            0.10713500000000        1.01327200000000        0.09108400000000
C            1.08318100000000        0.27340100000000        0.80701600000000
C            1.13228500000000        0.38871700000000        2.21482000000000
C            1.96902000000000       -0.39101300000000        3.00468400000000
C            2.77179700000000       -1.35887300000000        2.42208500000000
C            3.54689000000000       -2.19626400000000        3.24440600000000
C            4.33805700000000       -3.20314900000000        2.70070900000000
C            4.35249400000000       -3.38918200000000        1.32868900000000
C            3.58934700000000       -2.55389400000000        0.50706900000000
C            2.79297300000000       -1.49013800000000        1.01245400000000
C            2.01598300000000       -0.59756000000000        0.17287200000000
C            2.26060000000000       -0.54842900000000       -1.24058600000000
C            1.22509500000000       -0.81485700000000       -2.17855700000000
C            1.56638100000000       -0.99044600000000       -3.53707300000000
C            2.86845400000000       -0.83645100000000       -3.99978500000000
C            3.88098000000000       -0.45714900000000       -3.13022000000000
C            5.17255800000000       -0.23104100000000       -3.63835200000000
C            6.20720100000000        0.18993600000000       -2.80914800000000
C            5.95662500000000        0.39924200000000       -1.46384400000000
C            4.67556300000000        0.16959700000000       -0.95278900000000
C            3.59427700000000       -0.29102900000000       -1.75343900000000
N           -0.13831000000000       -0.87474600000000       -1.74305100000000
C           -1.02296800000000       -1.58457700000000       -2.67250400000000
P           -0.78565800000000        0.54038800000000       -1.19006900000000
S           -0.98243900000000        1.98180000000000       -2.72512800000000
S            0.94619600000000        2.47766600000000       -3.21263300000000
C            1.35186700000000        3.80354000000000       -2.09747100000000
C            2.49197300000000        3.69566500000000       -1.29450200000000
C            2.84651000000000        4.72973100000000       -0.42541900000000
C            2.06763400000000        5.88370700000000       -0.36099400000000
C            0.93777200000000        6.00666000000000       -1.16826200000000
C            0.58364900000000        4.97181800000000       -2.03732400000000
N           -2.23425400000000        0.07483400000000       -0.52138900000000
C           -3.36870300000000        0.84670400000000       -0.89208900000000
C           -4.12889000000000        0.48375400000000       -2.01519300000000
C           -5.22800300000000        1.24618400000000       -2.41738500000000
C           -5.57891400000000        2.39023400000000       -1.70632100000000
C           -4.82760600000000        2.77339000000000       -0.59839900000000
C           -3.72798600000000        2.00885700000000       -0.19899400000000
C           -2.49241200000000       -0.93837900000000        0.57139900000000
C           -2.56752300000000       -0.26227500000000        1.96860300000000
C           -2.86954300000000       -1.27620100000000        3.08741900000000
C           -4.22690300000000       -1.94105200000000        2.81550900000000
C           -4.18392000000000       -2.67870100000000        1.46932400000000
C           -3.09159500000000       -3.75178500000000        1.51243300000000
C           -1.73586100000000       -3.08703900000000        1.77414800000000
C           -1.77411100000000       -2.34882300000000        3.11723300000000
C           -1.44482900000000       -2.08439600000000        0.64271400000000
C           -3.87041500000000       -1.66801600000000        0.35007800000000
H            0.66214700000000        2.85765800000000        0.98312600000000
H           -0.72377000000000        2.96628800000000       -0.08303900000000
H           -0.92060600000000        2.23190400000000        1.49001000000000
H            0.47136000000000        1.06976000000000        2.74227100000000
H            1.93825500000000       -0.26375800000000        4.08397800000000
H            3.53009100000000       -2.07557000000000        4.32567800000000
H            4.92763100000000       -3.84612600000000        3.34767100000000
H            4.95011800000000       -4.18221300000000        0.88746700000000
H            3.61446400000000       -2.75637500000000       -0.56287500000000
H            0.81557700000000       -1.20558600000000       -4.29061200000000
H            3.06387600000000       -0.96641100000000       -5.06175500000000
H            5.37954500000000       -0.37125600000000       -4.69744400000000
H            7.19846200000000        0.36519600000000       -3.21721300000000
H            6.74882100000000        0.74338200000000       -0.80458200000000
H            4.52437900000000        0.37373400000000        0.10586900000000
H           -1.23233600000000       -0.99988400000000       -3.57496000000000
H           -0.60278500000000       -2.55762900000000       -2.95478600000000
H           -1.98959200000000       -1.81011600000000       -2.21809900000000
H            3.10772400000000        2.80027700000000       -1.33434500000000
H            3.73197300000000        4.63162600000000        0.19704600000000
H            2.34533500000000        6.69037400000000        0.31231400000000
H            0.33382600000000        6.90956800000000       -1.12780600000000
H           -0.29348600000000        5.08552000000000       -2.67018400000000
H           -3.86681200000000       -0.40219300000000       -2.58501100000000
H           -5.80458600000000        0.94772800000000       -3.28867300000000
H           -6.43169800000000        2.98657500000000       -2.01956700000000
H           -5.09110000000000        3.67169100000000       -0.04713700000000
H           -3.15012500000000        2.33758800000000        0.65703200000000
H           -1.63202100000000        0.24519100000000        2.19977900000000
H           -3.34875100000000        0.50390300000000        1.99371600000000
H           -2.90176700000000       -0.75730500000000        4.05213400000000
H           -4.46885300000000       -2.64421700000000        3.62195600000000
H           -5.02102800000000       -1.18442000000000        2.80511200000000
H           -5.15471600000000       -3.14962400000000        1.27736000000000
H           -3.06651600000000       -4.30188300000000        0.56377500000000
H           -3.31143000000000       -4.48430600000000        2.29866900000000
H           -0.95131900000000       -3.85197800000000        1.79708800000000
H           -0.80088500000000       -1.88884500000000        3.32326200000000
H           -1.96758300000000       -3.05991300000000        3.92993900000000
H           -1.41645400000000       -2.64945500000000       -0.29239000000000
H           -0.44574100000000       -1.69685500000000        0.80611400000000
H           -3.87049900000000       -2.18473200000000       -0.61864700000000
H           -4.69969100000000       -0.95081500000000        0.32763800000000
93
 energy: -133.718506210804 gnorm: 0.065810052518 xtb: 6.7.1 (edcfbbe)
C           -0.21709886851363        2.32116370931672        0.64676598866871
N            0.15063923447222        1.01359395614749        0.10545051198242
C            1.12085656606743        0.26594389722786        0.81810534039279
C            1.12797300677181        0.37963804975158        2.22035036301060
C            1.95434153206983       -0.38529272847417        3.00328764565764
C            2.77442412706535       -1.35979531403448        2.42507602045971
C            3.55085967826881       -2.20274931314594        3.24205131134714
C            4.33062933674969       -3.19295873638943        2.69496158015662
C            4.33721494588426       -3.37020756876170        1.31217957149855
C            3.59431902820220       -2.54176346257213        0.49295164231335
C            2.80677755751361       -1.48722301125706        1.00962742288903
C            2.03109927874164       -0.59415181663987        0.18594095738657
C            2.26976604816353       -0.55624378750607       -1.25476072757189
C            1.25060440906319       -0.80228635484248       -2.18763514073400
C            1.56771634183552       -0.96415781262946       -3.54687096554108
C            2.85380972788860       -0.82979217275141       -4.00448693575095
C            3.88283181553346       -0.45635794343290       -3.13340042967788
C            5.17809527522131       -0.22795642411396       -3.63428007714850
C            6.19346704842945        0.18587218931592       -2.80627935320409
C            5.92789174083223        0.39389549115211       -1.45371326045432
C            4.66588552887764        0.16109386996712       -0.94042265584106
C            3.59947724932608       -0.29817485359189       -1.74929183815337
N           -0.11255990938022       -0.90586022960120       -1.74814130164975
C           -1.01626898271108       -1.59412559228489       -2.67439374814987
P           -0.78780025332639        0.48102065629171       -1.13698230914904
S           -1.01495995215426        1.98927998433534       -2.65307753430635
S            0.93051561527490        2.45727495579521       -3.16852359031018
C            1.34996858033114        3.80868322203546       -2.08065739001677
C            2.48545122925785        3.69153193680680       -1.28589062410276
C            2.84103891426603        4.72646883571303       -0.43280993070195
C            2.06540411005213        5.87531830512874       -0.36892090654042
C            0.93944118022744        5.99632415593896       -1.17165532693492
C            0.58449022693026        4.96973802649487       -2.03428800743887
N           -2.26258258526869        0.04834140084859       -0.49999260031899
C           -3.38238448271823        0.84965963985813       -0.89935687699705
C           -4.13198084896709        0.49023284767930       -2.01859804883396
C           -5.22217275183916        1.24907498293185       -2.41554729003291
C           -5.57325004678520        2.38674342905190       -1.70603718027490
C           -4.82341687382623        2.76700524843998       -0.60471612622647
C           -3.73115048639581        2.00823867155852       -0.20852515502976
C           -2.51219452366141       -0.96416264513906        0.59482129008825
C           -2.56935797070787       -0.26292528016728        1.96613225149671
C           -2.86968935319636       -1.28187127740966        3.07399839594313
C           -4.22528874491944       -1.93938184998850        2.81231944285998
C           -4.16896879229952       -2.66610300938844        1.46747103758845
C           -3.09064786467831       -3.74694017348966        1.51203104251196
C           -1.74542629228497       -3.07028081072430        1.77089475484592
C           -1.77439808258475       -2.34657264968523        3.11561122155777
C           -1.43912649976462       -2.07257708544714        0.64211548981408
C           -3.87670140878478       -1.65837277980154        0.34439847031616
H            0.67413063502737        2.85814376505771        0.97755471114195
H           -0.71750715812927        2.93937382351942       -0.10476596261096
H           -0.90636017120031        2.23045323870573        1.49101528588792
H            0.47375945735915        1.07535209849608        2.72620258196704
H            1.93756917416889       -0.25093682079661        4.07588510069675
H            3.52560578631986       -2.07657917287294        4.31630897327805
H            4.92033302582623       -3.83595382484199        3.33527556585934
H            4.92882953739494       -4.16355564882279        0.87503524946531
H            3.61190692071361       -2.73477672071664       -0.57191124320018
H            0.81009643580357       -1.20370599515044       -4.27829091844247
H            3.05640955633499       -0.97601418544262       -5.05616465391037
H            5.37456473883915       -0.36894070705249       -4.68873198934040
H            7.18352335606672        0.36088080328835       -3.20697493261667
H            6.71686499027336        0.73989869827130       -0.79892969831821
H            4.50545600654597        0.35809201315756        0.11196998194926
H           -1.22653289906337       -1.00709308752167       -3.57486283905862
H           -0.58018028091892       -2.55252019827438       -2.95821911656444
H           -1.97336143373400       -1.79995108453105       -2.19158345150233
H            3.09769052693578        2.79978251692696       -1.33695936020763
H            3.72318640544208        4.62992614166879        0.18516864454603
H            2.34136088258574        6.67870425625235        0.30128291005567
H            0.33918643678682        6.89507541785365       -1.13335298407960
H           -0.28987011982689        5.07470781365688       -2.66423210545618
H           -3.86927361222382       -0.39627794726553       -2.57968183074486
H           -5.79698864074878        0.94958191948184       -3.28072719504450
H           -6.42313768376334        2.97947121965264       -2.01545498894249
H           -5.08482275352789        3.65942935877523       -0.05249553836917
H           -3.15424941779144        2.32783026546918        0.64844302123990
H           -1.62106877730763        0.23056014734802        2.18421250024574
H           -3.35509282512781        0.49726998443901        1.97158340841948
H           -2.90079433904746       -0.75650593094826        4.03448066070178
H           -4.46102214865792       -2.64486786845453        3.61343496650026
H           -5.01568868881763       -1.18345133903619        2.79943560976200
H           -5.13986247285798       -3.13235033657049        1.26936093275260
H           -3.06403456592220       -4.29353387184772        0.56479171520363
H           -3.31062647891380       -4.47251222971118        2.29973288353445
H           -0.95595836291886       -3.82948131820034        1.78689321508697
H           -0.80251413287628       -1.88550895093004        3.31503172549907
H           -1.97246144845081       -3.05771398017573        3.92212473283715
H           -1.42289129396995       -2.63151483512186       -0.29463077105385
H           -0.44284887163162       -1.66413725969676        0.80463887494006
H           -3.86244117405993       -2.17719967295466       -0.61857465471285
H           -4.68844787948574       -0.92729827360136        0.31914956091163
93
 energy: -133.727925921667 gnorm: 0.024359855090 xtb: 6.7.1 (edcfbbe)
C           -0.19533405359416        2.32879055332584        0.64321403128373
N            0.20551217891275        1.02999428476913        0.10244271078472
C            1.15322736460130        0.26101096956913        0.82367288064100
C            1.12873936653835        0.37702966957928        2.22600884801859
C            1.94776493986827       -0.37929139736519        3.00378929366564
C            2.77829330960481       -1.35766058605808        2.42571168498690
C            3.55515348117931       -2.20840047424621        3.23608366061144
C            4.32652670136027       -3.18594444109874        2.68160224772179
C            4.32815928897950       -3.35233292322627        1.28918021649778
C            3.59989104442810       -2.52710974279511        0.47542335795594
C            2.81728442951913       -1.48106239835063        1.00727901019264
C            2.04312361298056       -0.58791362211016        0.19630088008103
C            2.27433917167267       -0.55995854355685       -1.26743816629184
C            1.27239341631336       -0.79390272050250       -2.19182020143258
C            1.56898962775840       -0.94901087238811       -3.55553929424591
C            2.84394465447507       -0.82271131806360       -4.00995585856985
C            3.88238420379508       -0.45371871638756       -3.13571451700703
C            5.18271167786673       -0.22527500258760       -3.62712614387896
C            6.18194780518992        0.18266690270513       -2.79472167309525
C            5.90221472636438        0.38616667616938       -1.43562661677211
C            4.65387484966182        0.15069249680462       -0.92529917109945
C            3.59922770489400       -0.30045996778018       -1.74835790946102
N           -0.08968988582941       -0.92637054594704       -1.75395321385514
C           -1.00499850818367       -1.60494254160683       -2.67604502570039
P           -0.78672530985659        0.43337149079981       -1.08862309225679
S           -1.05081129658849        1.97551082104479       -2.56430427898619
S            0.89015684081564        2.41752336601137       -3.10759391092185
C            1.33580336508770        3.79795880532946       -2.05454920502188
C            2.47803663252473        3.67906309486221       -1.27716624187081
C            2.83838862676631        4.71981973788006       -0.43959761216153
C            2.06399955677872        5.86615494698103       -0.37737322285109
C            0.93909526592645        5.98510418764901       -1.17721630088742
C            0.57510604408443        4.95676592454901       -2.02679555220222
N           -2.28062966858319        0.03429557057291       -0.48998064093616
C           -3.38700746889355        0.85760731323707       -0.91303905095884
C           -4.13157499479742        0.49314145487771       -2.02635399956017
C           -5.21714422891456        1.25157819976899       -2.41952212148308
C           -5.56802065749455        2.38622225090127       -1.70969088022897
C           -4.81788400507491        2.76480352321167       -0.61140386596134
C           -3.72952632061872        2.00909309587105       -0.21634781081713
C           -2.52762410187541       -0.97420419983117        0.60626499326322
C           -2.57596707013314       -0.27067263886874        1.96310802505186
C           -2.87296332442252       -1.27971774724639        3.07542741515271
C           -4.22325347053349       -1.93747909462391        2.80804551039402
C           -4.17388786806302       -2.66314750862713        1.46644724569468
C           -3.08770927511411       -3.73295151463329        1.50643696141574
C           -1.74265459061407       -3.06183395610371        1.76809378642475
C           -1.77693788912380       -2.33999469470929        3.11014426544692
C           -1.44739771245402       -2.05895695710737        0.64394550525867
C           -3.87316826098034       -1.65526132261521        0.35090008194402
H            0.69112050041588        2.86886410824070        0.97104565309019
H           -0.69980746072889        2.91704724620002       -0.12863885257566
H           -0.88790932374836        2.23237444623866        1.48402820481515
H            0.47303470039575        1.08241989430626        2.70859784366622
H            1.94027016813094       -0.25252867792448        4.07431938818701
H            3.51876871495646       -2.07681947711137        4.30644389352635
H            4.91694848692297       -3.83367258857829        3.31126606006594
H            4.91239250156310       -4.14948722317342        0.85624062200255
H            3.61230495187088       -2.70076232624086       -0.58890171974618
H            0.79755326691538       -1.18555755156550       -4.26758655937015
H            3.05932478676018       -0.97659877568206       -5.05451521927566
H            5.36784904048282       -0.36659510319631       -4.68044990305443
H            7.17303409248132        0.36096334815591       -3.18292807080643
H            6.68800940248450        0.73878251881234       -0.78521672432053
H            4.47831179297750        0.33505521189796        0.12339958528632
H           -1.21763860489965       -1.01806782156633       -3.57517606009447
H           -0.56295719430918       -2.55686014936095       -2.95931892095685
H           -1.95163564518154       -1.78980654057294       -2.16821602984942
H            3.08160172941433        2.78570353673255       -1.33348935094424
H            3.72129006350644        4.62779840258328        0.17286829511899
H            2.34009934843589        6.66911505174164        0.28809581915820
H            0.34320674959154        6.88321657806203       -1.14273620670894
H           -0.29555132025903        5.05302699274320       -2.65763436104272
H           -3.86729036755266       -0.39496608056152       -2.57941259253462
H           -5.79170999501583        0.95150821969443       -3.28062984422751
H           -6.41905644060942        2.97410351498247       -2.01312912684555
H           -5.07842296888972        3.65245258523081       -0.05682813956663
H           -3.15116733885439        2.31893605368413        0.64086773043074
H           -1.61703465662092        0.21008237607915        2.16430603190095
H           -3.35898870561481        0.48936343679568        1.95464426796392
H           -2.90286308241410       -0.74907307355771        4.03333765828941
H           -4.45408611419067       -2.64574468868063        3.60389278037850
H           -5.01126994045639       -1.18250413632442        2.79544365876871
H           -5.14472687265900       -3.12717976316173        1.26235694298219
H           -3.06004203568400       -4.28006066046515        0.56200589143322
H           -3.30598844653543       -4.45217277336112        2.29621473677361
H           -0.94754771176728       -3.81597979853470        1.77683014406960
H           -0.80684049990839       -1.87801995433307        3.30726392937912
H           -1.97655718732424       -3.05251744681739        3.91090944606539
H           -1.42877885805421       -2.61092647432503       -0.29445422267714
H           -0.45876740463696       -1.62473454080240        0.80692332965687
H           -3.85293331985825       -2.17111139312619       -0.61052183256009
H           -4.67092872773684       -0.91314139119133        0.31986979017446
93
 energy: -133.730974780314 gnorm: 0.022107438870 xtb: 6.7.1 (edcfbbe)
C           -0.17260523091765        2.33978942507323        0.63603550434389
N            0.24053404217124        1.04974088094518        0.08909907420037
C            1.16462502920564        0.26400610236215        0.82532422491808
C            1.13273259811332        0.37935013879009        2.22992481310325
C            1.94924280716554       -0.38168591486152        3.00559100389486
C            2.78125469962372       -1.35814407291198        2.42196662346135
C            3.55938249487490       -2.21464694737776        3.22581828312126
C            4.32848167418059       -3.18887482615103        2.66161012769537
C            4.33017383664357       -3.34635360234949        1.26612833199222
C            3.60584837955105       -2.51470894974499        0.45876433609911
C            2.82166102842451       -1.47663416446718        1.00452703521289
C            2.04710827311743       -0.58430583302416        0.19842572463627
C            2.27410624029613       -0.55858354228939       -1.27068140813848
C            1.27614807576795       -0.78766726856206       -2.19204707013242
C            1.56765724202682       -0.93482336655127       -3.56060868119496
C            2.84405882274595       -0.81240479075207       -4.01273826248776
C            3.88238883963602       -0.44949300705996       -3.13345498699439
C            5.18644798376173       -0.22066144545657       -3.61636830538028
C            6.17905276320135        0.18516762003376       -2.77458167141409
C            5.89193386021685        0.38420542403777       -1.41421324235894
C            4.64411944909763        0.14386122536599       -0.91124419305602
C            3.59688596669525       -0.30023183302773       -1.74771375948189
N           -0.08254994910865       -0.92862513447679       -1.75339291450650
C           -0.99732231978424       -1.61239553111887       -2.67147093856232
P           -0.78699364613425        0.41635305123742       -1.06242377892577
S           -1.10168760171540        1.96166017928154       -2.50445781152326
S            0.84370196971597        2.36668684246650       -3.05252600431700
C            1.30922071756259        3.76553322940538       -2.02493705121210
C            2.46227239770580        3.65304417697543       -1.26273961401509
C            2.83575210365212        4.70655746452803       -0.44498784915891
C            2.06345367765860        5.85510741049561       -0.38950740395986
C            0.93333324724099        5.96916673589307       -1.18321048407195
C            0.55561562265935        4.92899162339517       -2.01442805614105
N           -2.28380669933223        0.02879039887957       -0.48416116856204
C           -3.38510618874683        0.85626730856717       -0.91669685982361
C           -4.12641475843596        0.48965759724300       -2.03170494567955
C           -5.21075996414501        1.25129829857560       -2.42626296194676
C           -5.56191786422047        2.38561618779590       -1.71509159438951
C           -4.81125414185345        2.76501417050208       -0.61668573854134
C           -3.72377806738966        2.00813032924061       -0.21951792947403
C           -2.53743879960972       -0.97449526106849        0.61023703975235
C           -2.58094947975415       -0.26544805304894        1.96147863645960
C           -2.87679075175969       -1.27532772637432        3.07227987738064
C           -4.22660864886223       -1.93560021122629        2.80794376087530
C           -4.17371168478662       -2.65703720148794        1.46417341412789
C           -3.08458454542928       -3.72475081375444        1.50181748269147
C           -1.74166004581004       -3.04825718411204        1.76372627031446
C           -1.77692989860021       -2.33189452044810        3.10860199144956
C           -1.44745066103369       -2.04324234289174        0.64257862675502
C           -3.88087324553098       -1.64903315279675        0.34778339908917
H            0.71107811041695        2.88384981216374        0.96392316445390
H           -0.67617978879170        2.91760818045089       -0.14072956509787
H           -0.86648415639498        2.23928591619908        1.47476831336553
H            0.47521125333035        1.08933692853957        2.70168361942487
H            1.94633736382738       -0.26453086523007        4.07785161789209
H            3.51857880611180       -2.08474274009866        4.29662388668246
H            4.92052102564061       -3.84320730562869        3.28181197596145
H            4.91242846968042       -4.14353161622281        0.83138399738904
H            3.61701827833471       -2.66786807154236       -0.60925289337564
H            0.78806306875851       -1.16131369563120       -4.26588010558141
H            3.06837666649603       -0.96490477856668       -5.05611910545718
H            5.37046922592768       -0.36086222047773       -4.67042532312560
H            7.17377605690334        0.36521312176527       -3.15072554147382
H            6.67534867180217        0.73650114857801       -0.76138214719561
H            4.45418256164684        0.31504803131876        0.13758256001077
H           -1.21226575207435       -1.02973745520731       -3.57231164632687
H           -0.55331957523883       -2.56468261083067       -2.95239035410005
H           -1.93854029250422       -1.79209217544384       -2.15587744262305
H            3.06063607543876        2.75674895073646       -1.31841577771154
H            3.72672897584357        4.62317968933426        0.15760440939686
H            2.34536472036445        6.66402666003006        0.26606290072149
H            0.34413827684884        6.87234203604029       -1.15814886500843
H           -0.31697599270347        5.01796459078495       -2.64317037943067
H           -3.86089006971039       -0.39887977215843       -2.58288404441487
H           -5.78617312273275        0.95174428864059       -3.28716007849153
H           -6.41463241937328        2.97193835498412       -2.01634646199517
H           -5.07226773476603        3.65189405587347       -0.06120434169820
H           -3.14271967566765        2.31490123891722        0.63625225724128
H           -1.61731080324151        0.20938631100775        2.15459925299749
H           -3.36128071439319        0.49653358999412        1.95098793730234
H           -2.90771203629685       -0.74521417496725        4.02954608557193
H           -4.45400964093996       -2.64729117424526        3.60184879216192
H           -5.01579062510232       -1.18183769855449        2.79694702333548
H           -5.14197777253875       -3.12414003101690        1.26069796016722
H           -3.05580655801219       -4.27048257118386        0.55677714564870
H           -3.29944403656782       -4.44369329989121        2.29298432645720
H           -0.94466191220788       -3.79914695445403        1.76939828299762
H           -0.80837849838643       -1.86717163455683        3.30702051245444
H           -1.97595773923294       -3.04795891993512        3.90632476152189
H           -1.42019372939031       -2.59179467891796       -0.29718838517169
H           -0.46572147909331       -1.59183437652792        0.80958754391276
H           -3.85907931826041       -2.16535414663408       -0.61382137604203
H           -4.67648381350265       -0.90389406113504        0.31493961112618
93
 energy: -133.733002836551 gnorm: 0.016052644753 xtb: 6.7.1 (edcfbbe)
C           -0.14471744950585        2.35467170079573        0.62872929043906
N            0.27443377372337        1.07515417193832        0.06818330333666
C            1.16807931162701        0.26859054231962        0.82497746135014
C            1.13590283695452        0.37908323123647        2.23142836423763
C            1.94993402240905       -0.39150053818936        3.00366652338710
C            2.78093375613906       -1.36504717025763        2.41321219663004
C            3.56292998092388       -2.22646072186380        3.20896339300883