      -----------------------------------------------------------      
     |                   =====================                   |     
     |                           x T B                           |     
     |                   =====================                   |     
     |                         S. Grimme                         |     
     |          Mulliken Center for Theoretical Chemistry        |     
     |                    University of Bonn                     |     
      -----------------------------------------------------------      

   * xtb version 6.7.1 (edcfbbe) compiled by 'conda@3ef47c1a292c' on 2024-11-25

   xtb is free software: you can redistribute it and/or modify it under
   the terms of the GNU Lesser General Public License as published by
   the Free Software Foundation, either version 3 of the License, or
   (at your option) any later version.
   
   xtb is distributed in the hope that it will be useful,
   but WITHOUT ANY WARRANTY; without even the implied warranty of
   MERCHANTABILITY or FITNESS FOR A PARTICULAR PURPOSE.  See the
   GNU Lesser General Public License for more details.
   
   Cite this work as:
   * C. Bannwarth, E. Caldeweyher, S. Ehlert, A. Hansen, P. Pracht,
     J. Seibert, S. Spicher, S. Grimme, WIREs Comput. Mol. Sci., 2020, 11,
     e01493. DOI: 10.1002/wcms.1493
   
   for GFN2-xTB:
   * C. Bannwarth, S. Ehlert and S. Grimme., J. Chem. Theory Comput., 2019,
     15, 1652-1671. DOI: 10.1021/acs.jctc.8b01176
   for GFN1-xTB:
   * S. Grimme, C. Bannwarth, P. Shushkov, J. Chem. Theory Comput., 2017,
     13, 1989-2009. DOI: 10.1021/acs.jctc.7b00118
   for GFN0-xTB:
   * P. Pracht, E. Caldeweyher, S. Ehlert, S. Grimme, ChemRxiv, 2019, preprint.
     DOI: 10.26434/chemrxiv.8326202.v1
   for GFN-FF:
   * S. Spicher and S. Grimme, Angew. Chem. Int. Ed., 2020, 59, 15665-15673.
     DOI: 10.1002/anie.202004239
   
   for ALPB and GBSA implicit solvation:
   * S. Ehlert, M. Stahn, S. Spicher, S. Grimme, J. Chem. Theory Comput.,
     2021, 17, 4250-4261. DOI: 10.1021/acs.jctc.1c00471
   
   for ddCOSMO and CPCM-X implicit solvation:
   * M. Stahn, S. Ehlert, S. Grimme, J. Phys. Chem. A,
     2023, XX, XXXX-XXXX. DOI: 10.1021/acs.jpca.3c04382
   
   for DFT-D4:
   * E. Caldeweyher, C. Bannwarth and S. Grimme, J. Chem. Phys., 2017,
     147, 034112. DOI: 10.1063/1.4993215
   * E. Caldeweyher, S. Ehlert, A. Hansen, H. Neugebauer, S. Spicher,
     C. Bannwarth and S. Grimme, J. Chem. Phys., 2019, 150, 154122.
     DOI: 10.1063/1.5090222
   * E. Caldeweyher, J.-M. Mewes, S. Ehlert and S. Grimme, Phys. Chem. Chem. Phys.
     2020, 22, 8499-8512. DOI: 10.1039/D0CP00502A
   
   for sTDA-xTB:
   * S. Grimme and C. Bannwarth, J. Chem. Phys., 2016, 145, 054103.
     DOI: 10.1063/1.4959605
   
   in the mass-spec context:
   * V. Asgeirsson, C. Bauer and S. Grimme, Chem. Sci., 2017, 8, 4879.
     DOI: 10.1039/c7sc00601b
   * J. Koopman and S. Grimme, ACS Omega 2019, 4, 12, 15120-15133.
     DOI: 10.1021/acsomega.9b02011
   
   for metadynamics refer to:
   * S. Grimme, J. Chem. Theory Comput., 2019, 155, 2847-2862
     DOI: 10.1021/acs.jctc.9b00143
   
   for SPH calculations refer to:
   * S. Spicher and S. Grimme, J. Chem. Theory Comput., 2021, 17, 1701-1714
     DOI: 10.1021/acs.jctc.0c01306
   
   for ONIOM refer to:
   * C. Plett, A. Katbashev, S. Ehlert, S. Grimme, M. Bursch,
     Phys. Chem. Chem. Phys., 2023, 25, 17860-17868. DOI: 10.1039/D3CP02178E
   
   for DIPRO refer to:
   * J. Kohn, N. Gildemeister, S. Grimme, D. Fazzi, A. Hansen,
     J. Chem. Phys., 2023, just accepted.
   
   for PTB refer to:
   * S. Grimme, M. Mueller, A. Hansen, J. Chem. Phys., 2023, 158, 124111.
     DOI: 10.1063/5.0137838
   
   with help from (in alphabetical order)
   P. Atkinson, C. Bannwarth, F. Bohle, G. Brandenburg, E. Caldeweyher
   M. Checinski, S. Dohm, S. Ehlert, S. Ehrlich, I. Gerasimov, C. Hölzer
   A. Katbashev, J. Kohn, J. Koopman, C. Lavigne, S. Lehtola, F. März, M. Müller,
   F. Musil, H. Neugebauer, J. Pisarek, C. Plett, P. Pracht, F. Pultar,
   J. Seibert, P. Shushkov, S. Spicher, M. Stahn, M. Steiner, T. Strunk,
   J. Stückrath, T. Rose, and J. Unsleber
   
 * started run on 2024/12/16 at 19:03:59.364     
   ID    Z sym.   atoms
    1    6 C      1, 3-22, 24, 28-32, 36, 37, 39-43
    2    7 N      2, 23, 38
    3   15 P      25
    4   16 S      26, 27
    5    9 F      33-35
    6    1 H      44-77

           -------------------------------------------------
          |                Calculation Setup                |
           -------------------------------------------------

          program call               : xtb --gfn2 --opt extreme -P 8 --charge 1 molecule.xyz
          hostname                   : node20
          coordinate file            : molecule.xyz
          omp threads                :                     8


           -------------------------------------------------
          |                 G F N 2 - x T B                 |
           -------------------------------------------------

        Reference                      10.1021/acs.jctc.8b01176
      * Hamiltonian:
        H0-scaling (s, p, d)           1.850000    2.230000    2.230000
        zeta-weighting                 0.500000
      * Dispersion:
        s8                             2.700000
        a1                             0.520000
        a2                             5.000000
        s9                             5.000000
      * Repulsion:
        kExp                           1.500000    1.000000
        rExp                           1.000000
      * Coulomb:
        alpha                          2.000000
        third order                    shell-resolved
        anisotropic                    true
        a3                             3.000000
        a5                             4.000000
        cn-shift                       1.200000
        cn-exp                         4.000000
        max-rad                        5.000000


          ...................................................
          :                      SETUP                      :
          :.................................................:
          :  # basis functions                 224          :
          :  # atomic orbitals                 221          :
          :  # shells                          123          :
          :  # electrons                       222          :
          :  max. iterations                   250          :
          :  Hamiltonian                  GFN2-xTB          :
          :  restarted?                      false          :
          :  GBSA solvation                  false          :
          :  PC potential                    false          :
          :  electronic temp.          300.0000000     K    :
          :  accuracy                    1.0000000          :
          :  -> integral cutoff          0.2500000E+02      :
          :  -> integral neglect         0.1000000E-07      :
          :  -> SCF convergence          0.1000000E-05 Eh   :
          :  -> wf. convergence          0.1000000E-03 e    :
          :  Broyden damping             0.4000000          :
          :  net charge                          1          :
          :  unpaired electrons                  0          :
          ...................................................

 iter      E             dE          RMSdq      gap      omega  full diag
   1   -123.2829664 -0.123283E+03  0.443E+00    1.70       0.0  T
   2   -123.4749818 -0.192015E+00  0.267E+00    1.89       1.0  T
   3   -123.4566372  0.183447E-01  0.130E+00    1.64       1.0  T
   4   -123.4762398 -0.196026E-01  0.657E-01    1.29       1.0  T
   5   -123.5036650 -0.274252E-01  0.272E-01    1.40       1.0  T
   6   -123.5060834 -0.241842E-02  0.136E-01    1.37       1.0  T
   7   -123.5074644 -0.138097E-02  0.485E-02    1.38       1.0  T
   8   -123.5075158 -0.513774E-04  0.230E-02    1.39       1.0  T
   9   -123.5075213 -0.550321E-05  0.108E-02    1.39       1.1  T
  10   -123.5075220 -0.739618E-06  0.640E-03    1.39       1.8  T
  11   -123.5075227 -0.627047E-06  0.356E-03    1.39       3.2  T
  12   -123.5075229 -0.274652E-06  0.209E-03    1.39       5.4  T
  13   -123.5075229 -0.229284E-07  0.111E-03    1.39      10.3  T
  14   -123.5075230 -0.291340E-07  0.512E-04    1.39      22.3  T
  15   -123.5075230 -0.248644E-08  0.257E-04    1.39      44.3  T

   *** convergence criteria satisfied after 15 iterations ***

         #    Occupation            Energy/Eh            Energy/eV
      -------------------------------------------------------------
         1        2.0000           -0.9501791             -25.8557
       ...           ...                  ...                  ...
       105        2.0000           -0.5104659             -13.8905
       106        2.0000           -0.5087512             -13.8438
       107        2.0000           -0.5007751             -13.6268
       108        2.0000           -0.4926725             -13.4063
       109        2.0000           -0.4895628             -13.3217
       110        2.0000           -0.4729458             -12.8695
       111        2.0000           -0.4602559             -12.5242 (HOMO)
       112                         -0.4092310             -11.1357 (LUMO)
       113                         -0.3767389             -10.2516
       114                         -0.3687145             -10.0332
       115                         -0.3656153              -9.9489
       116                         -0.3642324              -9.9113
       ...                                ...                  ...
       221                          1.0761835              29.2844
      -------------------------------------------------------------
                  HL-Gap            0.0510249 Eh            1.3885 eV
             Fermi-level           -0.4347435 Eh          -11.8300 eV

 SCC (total)                   0 d,  0 h,  0 min,  2.596 sec
 SCC setup                      ...        0 min,  0.000 sec (  0.011%)
 Dispersion                     ...        0 min,  0.001 sec (  0.045%)
 classical contributions        ...        0 min,  0.000 sec (  0.004%)
 integral evaluation            ...        0 min,  0.006 sec (  0.239%)
 iterations                     ...        0 min,  2.455 sec ( 94.544%)
 molecular gradient             ...        0 min,  0.118 sec (  4.557%)
 printout                       ...        0 min,  0.016 sec (  0.599%)

         :::::::::::::::::::::::::::::::::::::::::::::::::::::
         ::                     SUMMARY                     ::
         :::::::::::::::::::::::::::::::::::::::::::::::::::::
         :: total energy            -121.842422776960 Eh    ::
         :: gradient norm              0.137998717070 Eh/a0 ::
         :: HOMO-LUMO gap              1.388458841468 eV    ::
         ::.................................................::
         :: SCC energy              -123.502198231516 Eh    ::
         :: -> isotropic ES            0.125886258350 Eh    ::
         :: -> anisotropic ES          0.001100750933 Eh    ::
         :: -> anisotropic XC          0.048602969136 Eh    ::
         :: -> dispersion             -0.119075302538 Eh    ::
         :: repulsion energy           1.659775454556 Eh    ::
         :: add. restraining           0.000000000000 Eh    ::
         :: total charge               1.000000000000 e     ::
         :::::::::::::::::::::::::::::::::::::::::::::::::::::

      ----------------------------------------------------------- 
     |                   =====================                   |
     |                        A N C O P T                        |
     |                   =====================                   |
     |               Approximate Normal Coordinate               |
     |                Rational Function Optimizer                |
      ----------------------------------------------------------- 
      ----------------------------------------------------------- 
     |                   =====================                   |
     |                        A N C O P T                        |
     |                   =====================                   |
     |               Approximate Normal Coordinate               |
     |                Rational Function Optimizer                |
      ----------------------------------------------------------- 

          ...................................................
          :                      SETUP                      :
          :.................................................:
          :   optimization level           extreme          :
          :   max. optcycles                  1540          :
          :   ANC micro-cycles                  20          :
          :   degrees of freedom               225          :
          :.................................................:
          :   RF solver                   davidson          :
          :   write xtbopt.log                true          :
          :   linear?                        false          :
          :   energy convergence         0.5000000E-07 Eh   :
          :   grad. convergence          0.5000000E-04 Eh/α :
          :   maxmium RF displ.          1.0000000          :
          :   Hlow (freq-cutoff)         0.1000000E-01      :
          :   Hmax (freq-cutoff)         5.0000000          :
          :   S6 in model hess.         20.0000000          :
          ...................................................

generating ANC from exact Hessian ...
Using Lindh-Hessian (1995)
 Shifting diagonal of input Hessian by    9.8881216476598005E-003
 Lowest  eigenvalues of input Hessian
    0.000000    0.000000    0.000000    0.000000    0.000000    0.000000
    0.010000    0.010015    0.010177    0.010227    0.010270    0.010482
    0.010565    0.010728    0.011022    0.011176    0.011273    0.011540
 Highest eigenvalues
    1.942127    1.942738    1.987631    2.024755    2.066324    2.069116


........................................................................
.............................. CYCLE    1 ..............................
........................................................................

 iter      E             dE          RMSdq      gap      omega  full diag
   1   -123.5075230 -0.123508E+03  0.111E-04    1.39       0.0  T
   2   -123.5075230 -0.111456E-09  0.710E-05    1.39     160.5  T
   3   -123.5075230 -0.884199E-10  0.509E-05    1.39     223.8  T
     SCC iter.                  ...        0 min,  0.297 sec
     gradient                   ...        0 min,  0.114 sec
 * total energy  :  -121.8424228 Eh     change       -0.1639620E-08 Eh
   gradient norm :     0.1379986 Eh/α   predicted     0.0000000E+00 (-100.00%)
   displ. norm   :     0.4030639 α      lambda       -0.2842867E-01
   maximum displ.:     0.0975133 α      in ANC's #15, #31, #61, ...

........................................................................
.............................. CYCLE    2 ..............................
........................................................................

 iter      E             dE          RMSdq      gap      omega  full diag
   1   -123.5815615 -0.123582E+03  0.284E-01    1.53       0.0  T
   2   -123.5817393 -0.177728E-03  0.144E-01    1.60       1.0  T
   3   -123.5816426  0.967127E-04  0.537E-02    1.63       1.0  T
   4   -123.5817561 -0.113556E-03  0.266E-02    1.64       1.0  T
   5   -123.5817807 -0.245982E-04  0.136E-02    1.64       1.0  T
   6   -123.5817893 -0.859758E-05  0.563E-03    1.64       2.0  T
   7   -123.5817901 -0.812908E-06  0.356E-03    1.64       3.2  T
   8   -123.5817903 -0.178383E-06  0.208E-03    1.64       5.5  T
   9   -123.5817904 -0.455841E-07  0.988E-04    1.64      11.5  T
  10   -123.5817904 -0.115769E-07  0.382E-04    1.64      29.8  T
     SCC iter.                  ...        0 min,  1.417 sec
     gradient                   ...        0 min,  0.114 sec
 * total energy  :  -121.8625785 Eh     change       -0.2015568E-01 Eh
   gradient norm :     0.0604253 Eh/α   predicted    -0.1655295E-01 ( -17.87%)
   displ. norm   :     0.4117634 α      lambda       -0.1065114E-01
   maximum displ.:     0.1270878 α      in ANC's #15, #16, #51, ...

........................................................................
.............................. CYCLE    3 ..............................
........................................................................

 iter      E             dE          RMSdq      gap      omega  full diag
   1   -123.6279076 -0.123628E+03  0.197E-01    1.80       0.0  T
   2   -123.6279729 -0.653347E-04  0.104E-01    1.84       1.0  T
   3   -123.6279341  0.387960E-04  0.327E-02    1.86       1.0  T
   4   -123.6279822 -0.480442E-04  0.143E-02    1.86       1.0  T
   5   -123.6279887 -0.652672E-05  0.735E-03    1.86       1.6  T
   6   -123.6279912 -0.249398E-05  0.302E-03    1.86       3.8  T
   7   -123.6279914 -0.200745E-06  0.189E-03    1.86       6.0  T
   8   -123.6279914 -0.588797E-07  0.993E-04    1.86      11.5  T
   9   -123.6279915 -0.131183E-07  0.551E-04    1.86      20.7  T
     SCC iter.                  ...        0 min,  1.367 sec
     gradient                   ...        0 min,  0.116 sec
 * total energy  :  -121.8690690 Eh     change       -0.6490548E-02 Eh
   gradient norm :     0.0135262 Eh/α   predicted    -0.6228520E-02 (  -4.04%)
   displ. norm   :     0.3722841 α      lambda       -0.2345150E-02
   maximum displ.:     0.1506956 α      in ANC's #9, #16, #15, ...

........................................................................
.............................. CYCLE    4 ..............................
........................................................................

 iter      E             dE          RMSdq      gap      omega  full diag
   1   -123.6321191 -0.123632E+03  0.110E-01    1.91       0.0  T
   2   -123.6321404 -0.213135E-04  0.523E-02    1.92       1.0  T
   3   -123.6321371  0.332832E-05  0.159E-02    1.93       1.0  T
   4   -123.6321408 -0.365938E-05  0.896E-03    1.93       1.3  T
   5   -123.6321438 -0.304990E-05  0.350E-03    1.93       3.3  T
   6   -123.6321445 -0.644631E-06  0.166E-03    1.93       6.9  T
   7   -123.6321446 -0.137156E-06  0.567E-04    1.93      20.1  T
   8   -123.6321446 -0.697325E-08  0.315E-04    1.93      36.2  T
     SCC iter.                  ...        0 min,  1.064 sec
     gradient                   ...        0 min,  0.116 sec
 * total energy  :  -121.8707763 Eh     change       -0.1707295E-02 Eh
   gradient norm :     0.0115268 Eh/α   predicted    -0.1335150E-02 ( -21.80%)
   displ. norm   :     0.4664822 α      lambda       -0.1814705E-02
   maximum displ.:     0.2145023 α      in ANC's #9, #16, #14, ...

........................................................................
.............................. CYCLE    5 ..............................
........................................................................

 iter      E             dE          RMSdq      gap      omega  full diag
   1   -123.6343727 -0.123634E+03  0.889E-02    1.96       0.0  T
   2   -123.6343859 -0.132671E-04  0.476E-02    1.95       1.0  T
   3   -123.6343832  0.272083E-05  0.173E-02    1.95       1.0  T
   4   -123.6343883 -0.512291E-05  0.523E-03    1.95       2.2  T
   5   -123.6343883  0.328260E-07  0.346E-03    1.95       3.3  T
   6   -123.6343888 -0.487039E-06  0.152E-03    1.95       7.5  T
   7   -123.6343889 -0.550978E-07  0.892E-04    1.95      12.8  T
   8   -123.6343889 -0.165285E-07  0.412E-04    1.95      27.6  T
     SCC iter.                  ...        0 min,  1.103 sec
     gradient                   ...        0 min,  0.118 sec
 * total energy  :  -121.8719742 Eh     change       -0.1197919E-02 Eh
   gradient norm :     0.0100211 Eh/α   predicted    -0.1104809E-02 (  -7.77%)
   displ. norm   :     0.3897933 α      lambda       -0.9447630E-03
   maximum displ.:     0.1924622 α      in ANC's #9, #16, #14, ...

........................................................................
.............................. CYCLE    6 ..............................
........................................................................

 iter      E             dE          RMSdq      gap      omega  full diag
   1   -123.6341222 -0.123634E+03  0.977E-02    1.95       0.0  T
   2   -123.6341360 -0.138351E-04  0.438E-02    1.95       1.0  T
   3   -123.6341365 -0.442481E-06  0.116E-02    1.96       1.0  T
   4   -123.6341368 -0.310383E-06  0.674E-03    1.96       1.7  T
   5   -123.6341382 -0.139192E-05  0.183E-03    1.96       6.2  T
   6   -123.6341382 -0.496931E-07  0.763E-04    1.96      14.9  T
   7   -123.6341383 -0.146881E-07  0.417E-04    1.96      27.3  T
     SCC iter.                  ...        0 min,  0.949 sec
     gradient                   ...        0 min,  0.113 sec
 * total energy  :  -121.8725661 Eh     change       -0.5918895E-03 Eh
   gradient norm :     0.0066661 Eh/α   predicted    -0.5441749E-03 (  -8.06%)
   displ. norm   :     0.2902822 α      lambda       -0.4816128E-03
   maximum displ.:     0.1310156 α      in ANC's #9, #14, #16, ...

........................................................................
.............................. CYCLE    7 ..............................
........................................................................

 iter      E             dE          RMSdq      gap      omega  full diag
   1   -123.6364217 -0.123636E+03  0.578E-02    1.96       0.0  T
   2   -123.6364260 -0.421912E-05  0.313E-02    1.96       1.0  T
   3   -123.6364235  0.249513E-05  0.911E-03    1.96       1.3  T
   4   -123.6364263 -0.283593E-05  0.413E-03    1.96       2.8  T
   5   -123.6364269 -0.649237E-06  0.167E-03    1.96       6.8  T
   6   -123.6364270 -0.589435E-07  0.960E-04    1.96      11.9  T
   7   -123.6364270 -0.314498E-07  0.513E-04    1.96      22.2  T
     SCC iter.                  ...        0 min,  1.033 sec
     gradient                   ...        0 min,  0.113 sec
 * total energy  :  -121.8728942 Eh     change       -0.3281113E-03 Eh
   gradient norm :     0.0055916 Eh/α   predicted    -0.2610980E-03 ( -20.42%)
   displ. norm   :     0.2362654 α      lambda       -0.2736211E-03
   maximum displ.:     0.0919430 α      in ANC's #14, #9, #8, ...

........................................................................
.............................. CYCLE    8 ..............................
........................................................................

 iter      E             dE          RMSdq      gap      omega  full diag
   1   -123.6389986 -0.123639E+03  0.453E-02    1.97       0.0  T
   2   -123.6390002 -0.156688E-05  0.254E-02    1.97       1.0  T
   3   -123.6389973  0.281739E-05  0.764E-03    1.97       1.5  T
   4   -123.6390008 -0.342446E-05  0.233E-03    1.96       4.9  T
   5   -123.6390009 -0.126938E-06  0.913E-04    1.96      12.5  T
   6   -123.6390009 -0.217061E-07  0.379E-04    1.96      30.1  T
     SCC iter.                  ...        0 min,  0.956 sec
     gradient                   ...        0 min,  0.118 sec
 * total energy  :  -121.8730785 Eh     change       -0.1843229E-03 Eh
   gradient norm :     0.0041498 Eh/α   predicted    -0.1444483E-03 ( -21.63%)
   displ. norm   :     0.1899345 α      lambda       -0.1455061E-03
   maximum displ.:     0.0684433 α      in ANC's #2, #4, #8, ...

........................................................................
.............................. CYCLE    9 ..............................
........................................................................

 iter      E             dE          RMSdq      gap      omega  full diag
   1   -123.6393809 -0.123639E+03  0.392E-02    1.96       0.0  T
   2   -123.6393826 -0.171614E-05  0.209E-02    1.97       1.0  T
   3   -123.6393811  0.147439E-05  0.688E-03    1.97       1.7  T
   4   -123.6393828 -0.164452E-05  0.310E-03    1.97       3.7  T
   5   -123.6393830 -0.267549E-06  0.137E-03    1.97       8.3  T
   6   -123.6393831 -0.124841E-06  0.513E-04    1.97      22.2  T
   7   -123.6393832 -0.166375E-07  0.199E-04    1.97      57.4  T
     SCC iter.                  ...        0 min,  0.856 sec
     gradient                   ...        0 min,  0.111 sec
 * total energy  :  -121.8731798 Eh     change       -0.1012176E-03 Eh
   gradient norm :     0.0028517 Eh/α   predicted    -0.7537997E-04 ( -25.53%)
   displ. norm   :     0.1866385 α      lambda       -0.1090513E-03
   maximum displ.:     0.0782034 α      in ANC's #2, #7, #4, ...

........................................................................
.............................. CYCLE   10 ..............................
........................................................................

 iter      E             dE          RMSdq      gap      omega  full diag
   1   -123.6395817 -0.123640E+03  0.319E-02    1.97       0.0  T
   2   -123.6395825 -0.763807E-06  0.181E-02    1.97       1.0  T
   3   -123.6395814  0.105223E-05  0.489E-03    1.97       2.3  T
   4   -123.6395826 -0.112285E-05  0.204E-03    1.97       5.6  T
   5   -123.6395827 -0.153806E-06  0.948E-04    1.97      12.0  T
   6   -123.6395828 -0.491982E-07  0.425E-04    1.97      26.8  T
     SCC iter.                  ...        0 min,  0.786 sec
     gradient                   ...        0 min,  0.120 sec
 * total energy  :  -121.8732630 Eh     change       -0.8322541E-04 Eh
   gradient norm :     0.0025379 Eh/α   predicted    -0.5643244E-04 ( -32.19%)
   displ. norm   :     0.2331683 α      lambda       -0.1202366E-03
   maximum displ.:     0.1042058 α      in ANC's #2, #4, #7, ...

........................................................................
.............................. CYCLE   11 ..............................
........................................................................

 iter      E             dE          RMSdq      gap      omega  full diag
   1   -123.6388820 -0.123639E+03  0.414E-02    1.97       0.0  T
   2   -123.6388829 -0.809841E-06  0.231E-02    1.97       1.0  T
   3   -123.6388815  0.139658E-05  0.551E-03    1.97       2.1  T
   4   -123.6388827 -0.126513E-05  0.275E-03    1.98       4.1  T
   5   -123.6388831 -0.406803E-06  0.875E-04    1.97      13.0  T
   6   -123.6388832 -0.552459E-07  0.311E-04    1.98      36.7  T
     SCC iter.                  ...        0 min,  0.691 sec
     gradient                   ...        0 min,  0.118 sec
 * total energy  :  -121.8733608 Eh     change       -0.9782396E-04 Eh
   gradient norm :     0.0035078 Eh/α   predicted    -0.6339487E-04 ( -35.19%)
   displ. norm   :     0.3214616 α      lambda       -0.1527647E-03
   maximum displ.:     0.1484539 α      in ANC's #2, #4, #7, ...

........................................................................
.............................. CYCLE   12 ..............................
........................................................................

 iter      E             dE          RMSdq      gap      omega  full diag
   1   -123.6380648 -0.123638E+03  0.581E-02    1.98       0.0  T
   2   -123.6380660 -0.114394E-05  0.329E-02    1.98       1.0  T
   3   -123.6380638  0.216354E-05  0.683E-03    1.98       1.7  T
   4   -123.6380657 -0.186959E-05  0.355E-03    1.98       3.2  T
   5   -123.6380664 -0.736749E-06  0.966E-04    1.98      11.8  T
   6   -123.6380665 -0.689110E-07  0.372E-04    1.98      30.6  T
     SCC iter.                  ...        0 min,  0.749 sec
     gradient                   ...        0 min,  0.114 sec
 * total energy  :  -121.8734852 Eh     change       -0.1244316E-03 Eh
   gradient norm :     0.0043599 Eh/α   predicted    -0.8428030E-04 ( -32.27%)
   displ. norm   :     0.3853778 α      lambda       -0.1627939E-03
   maximum displ.:     0.1847903 α      in ANC's #2, #4, #7, ...

........................................................................
.............................. CYCLE   13 ..............................
........................................................................

 iter      E             dE          RMSdq      gap      omega  full diag
   1   -123.6374439 -0.123637E+03  0.705E-02    1.99       0.0  T
   2   -123.6374454 -0.145161E-05  0.402E-02    1.99       1.0  T
   3   -123.6374420  0.336054E-05  0.798E-03    1.99       1.4  T
   4   -123.6374451 -0.312856E-05  0.390E-03    1.99       2.9  T
   5   -123.6374460 -0.872806E-06  0.109E-03    1.99      10.4  T
   6   -123.6374461 -0.916176E-07  0.420E-04    1.99      27.2  T
   7   -123.6374461 -0.422858E-08  0.223E-04    1.99      51.2  T
     SCC iter.                  ...        0 min,  0.944 sec
     gradient                   ...        0 min,  0.116 sec
 * total energy  :  -121.8736153 Eh     change       -0.1301016E-03 Eh
   gradient norm :     0.0040735 Eh/α   predicted    -0.9348649E-04 ( -28.14%)
   displ. norm   :     0.3901234 α      lambda       -0.1431280E-03
   maximum displ.:     0.1965747 α      in ANC's #2, #4, #7, ...

........................................................................
.............................. CYCLE   14 ..............................
........................................................................

 iter      E             dE          RMSdq      gap      omega  full diag
   1   -123.6378860 -0.123638E+03  0.713E-02    1.99       0.0  T
   2   -123.6378876 -0.153797E-05  0.409E-02    2.00       1.0  T
   3   -123.6378837  0.389700E-05  0.829E-03    2.00       1.4  T
   4   -123.6378876 -0.391141E-05  0.366E-03    2.00       3.1  T
   5   -123.6378883 -0.680428E-06  0.120E-03    2.00       9.5  T
   6   -123.6378884 -0.105320E-06  0.492E-04    2.00      23.2  T
   7   -123.6378884 -0.659817E-08  0.272E-04    2.00      41.8  T
     SCC iter.                  ...        0 min,  0.941 sec
     gradient                   ...        0 min,  0.119 sec
 * total energy  :  -121.8737268 Eh     change       -0.1114870E-03 Eh
   gradient norm :     0.0030661 Eh/α   predicted    -0.8245890E-04 ( -26.04%)
   displ. norm   :     0.3484083 α      lambda       -0.1077121E-03
   maximum displ.:     0.1868930 α      in ANC's #2, #4, #7, ...

........................................................................
.............................. CYCLE   15 ..............................
........................................................................

 iter      E             dE          RMSdq      gap      omega  full diag
   1   -123.6392089 -0.123639E+03  0.629E-02    2.00       0.0  T
   2   -123.6392103 -0.136555E-05  0.362E-02    2.01       1.0  T
   3   -123.6392064  0.389716E-05  0.795E-03    2.01       1.4  T
   4   -123.6392105 -0.410564E-05  0.306E-03    2.01       3.7  T
   5   -123.6392109 -0.417382E-06  0.123E-03    2.01       9.3  T
   6   -123.6392110 -0.100709E-06  0.506E-04    2.01      22.5  T
   7   -123.6392110 -0.774303E-08  0.283E-04    2.01      40.2  T
     SCC iter.                  ...        0 min,  1.050 sec
     gradient                   ...        0 min,  0.125 sec
 * total energy  :  -121.8738100 Eh     change       -0.8314527E-04 Eh
   gradient norm :     0.0022831 Eh/α   predicted    -0.6039514E-04 ( -27.36%)
   displ. norm   :     0.2908188 α      lambda       -0.7457461E-04
   maximum displ.:     0.1669939 α      in ANC's #2, #4, #7, ...

........................................................................
.............................. CYCLE   16 ..............................
........................................................................

 iter      E             dE          RMSdq      gap      omega  full diag
   1   -123.6405258 -0.123641E+03  0.517E-02    2.01       0.0  T
   2   -123.6405268 -0.101344E-05  0.298E-02    2.02       1.0  T
   3   -123.6405236  0.322007E-05  0.708E-03    2.02       1.6  T
   4   -123.6405271 -0.348247E-05  0.244E-03    2.02       4.7  T
   5   -123.6405273 -0.224117E-06  0.109E-03    2.02      10.4  T
   6   -123.6405274 -0.835247E-07  0.412E-04    2.02      27.7  T
   7   -123.6405274 -0.522891E-08  0.222E-04    2.02      51.2  T
     SCC iter.                  ...        0 min,  0.999 sec
     gradient                   ...        0 min,  0.114 sec
 * total energy  :  -121.8738684 Eh     change       -0.5842491E-04 Eh
   gradient norm :     0.0020189 Eh/α   predicted    -0.4044618E-04 ( -30.77%)
   displ. norm   :     0.2210849 α      lambda       -0.5063449E-04
   maximum displ.:     0.1368603 α      in ANC's #2, #7, #4, ...

........................................................................
.............................. CYCLE   17 ..............................
........................................................................

 iter      E             dE          RMSdq      gap      omega  full diag
   1   -123.6413454 -0.123641E+03  0.387E-02    2.02       0.0  T
   2   -123.6413460 -0.593412E-06  0.223E-02    2.02       1.0  T
   3   -123.6413440  0.203123E-05  0.556E-03    2.02       2.0  T
   4   -123.6413462 -0.224206E-05  0.172E-03    2.02       6.6  T
   5   -123.6413463 -0.887257E-07  0.865E-04    2.02      13.2  T
   6   -123.6413463 -0.550432E-07  0.282E-04    2.02      40.4  T
     SCC iter.                  ...        0 min,  0.801 sec
     gradient                   ...        0 min,  0.114 sec
 * total energy  :  -121.8739096 Eh     change       -0.4118451E-04 Eh
   gradient norm :     0.0017125 Eh/α   predicted    -0.2655656E-04 ( -35.52%)
   displ. norm   :     0.2446652 α      lambda       -0.3770091E-04
   maximum displ.:     0.1635654 α      in ANC's #2, #7, #4, ...

........................................................................
.............................. CYCLE   18 ..............................
........................................................................

 iter      E             dE          RMSdq      gap      omega  full diag
   1   -123.6417131 -0.123642E+03  0.414E-02    2.03       0.0  T
   2   -123.6417137 -0.659927E-06  0.240E-02    2.03       1.0  T
   3   -123.6417114  0.236352E-05  0.590E-03    2.03       1.9  T
   4   -123.6417140 -0.267384E-05  0.156E-03    2.03       7.3  T
   5   -123.6417141 -0.445068E-07  0.913E-04    2.03      12.5  T
   6   -123.6417142 -0.604264E-07  0.261E-04    2.03      43.6  T
     SCC iter.                  ...        0 min,  0.829 sec
     gradient                   ...        0 min,  0.117 sec
 * total energy  :  -121.8739532 Eh     change       -0.4359133E-04 Eh
   gradient norm :     0.0015366 Eh/α   predicted    -0.1935373E-04 ( -55.60%)
   displ. norm   :     0.1543898 α      lambda       -0.2490322E-04
   maximum displ.:     0.1099403 α      in ANC's #2, #7, #4, ...

........................................................................
.............................. CYCLE   19 ..............................
........................................................................

 iter      E             dE          RMSdq      gap      omega  full diag
   1   -123.6412885 -0.123641E+03  0.244E-02    2.03       0.0  T
   2   -123.6412888 -0.221926E-06  0.142E-02    2.03       1.0  T
   3   -123.6412881  0.634916E-06  0.311E-03    2.03       3.7  T
   4   -123.6412889 -0.735979E-06  0.812E-04    2.03      14.0  T
   5   -123.6412889 -0.810476E-08  0.494E-04    2.03      23.1  T
     SCC iter.                  ...        0 min,  0.715 sec
     gradient                   ...        0 min,  0.113 sec
 * total energy  :  -121.8739861 Eh     change       -0.3296741E-04 Eh
   gradient norm :     0.0013953 Eh/α   predicted    -0.1258456E-04 ( -61.83%)
   displ. norm   :     0.1732142 α      lambda       -0.3198593E-04
   maximum displ.:     0.1170172 α      in ANC's #2, #1, #7, ...

........................................................................
.............................. CYCLE   20 ..............................
........................................................................

 iter      E             dE          RMSdq      gap      omega  full diag
   1   -123.6414018 -0.123641E+03  0.267E-02    2.04       0.0  T
   2   -123.6414021 -0.352616E-06  0.150E-02    2.04       1.0  T
   3   -123.6414018  0.267984E-06  0.308E-03    2.04       3.7  T
   4   -123.6414022 -0.311048E-06  0.139E-03    2.04       8.2  T
   5   -123.6414022 -0.788200E-07  0.251E-04    2.04      45.4  T
   6   -123.6414022 -0.176098E-08  0.137E-04    2.04      83.5  T
     SCC iter.                  ...        0 min,  0.669 sec
     gradient                   ...        0 min,  0.113 sec
 * total energy  :  -121.8740275 Eh     change       -0.4139660E-04 Eh
   gradient norm :     0.0013792 Eh/α   predicted    -0.1621001E-04 ( -60.84%)
   displ. norm   :     0.2377470 α      lambda       -0.3885406E-04
   maximum displ.:     0.1572041 α      in ANC's #2, #1, #7, ...
 * RMSD in coord.:     0.4605036 α      energy gain  -0.3160477E-01 Eh

generating ANC from exact Hessian ...
Using Lindh-Hessian (1995)
 Shifting diagonal of input Hessian by    9.8903342859754020E-003
 Lowest  eigenvalues of input Hessian
    0.000000    0.000000    0.000000    0.000000    0.000000    0.000000
    0.010000    0.010061    0.010163    0.010246    0.010302    0.010490
    0.010593    0.010668    0.010908    0.011205    0.011211    0.011622
 Highest eigenvalues
    2.001276    2.019623    2.025256    2.072801    2.113210    2.124211


........................................................................
.............................. CYCLE   21 ..............................
........................................................................

 iter      E             dE          RMSdq      gap      omega  full diag
   1   -123.6398772 -0.123640E+03  0.375E-02    2.04       0.0  T
   2   -123.6398779 -0.658355E-06  0.211E-02    2.03       1.0  T
   3   -123.6398773  0.584073E-06  0.423E-03    2.03       2.7  T
   4   -123.6398779 -0.618528E-06  0.199E-03    2.03       5.7  T
   5   -123.6398781 -0.171190E-06  0.548E-04    2.03      20.8  T
   6   -123.6398781 -0.204795E-07  0.233E-04    2.03      48.9  T
     SCC iter.                  ...        0 min,  0.808 sec
     gradient                   ...        0 min,  0.120 sec
 * total energy  :  -121.8740731 Eh     change       -0.4555055E-04 Eh
   gradient norm :     0.0013865 Eh/α   predicted     0.0000000E+00 (-100.00%)
   displ. norm   :     0.0400947 α      lambda       -0.1167538E-04
   maximum displ.:     0.0230823 α      in ANC's #2, #4, #1, ...

........................................................................
.............................. CYCLE   22 ..............................
........................................................................

 iter      E             dE          RMSdq      gap      omega  full diag
   1   -123.6412536 -0.123641E+03  0.743E-03    2.04       0.0  T
   2   -123.6412536 -0.565759E-07  0.428E-03    2.03       2.7  T
   3   -123.6412536  0.375224E-07  0.108E-03    2.03      10.6  T
   4   -123.6412536 -0.497159E-07  0.358E-04    2.03      31.9  T
   5   -123.6412536 -0.190860E-08  0.144E-04    2.03      79.0  T
     SCC iter.                  ...        0 min,  0.600 sec
     gradient                   ...        0 min,  0.120 sec
 * total energy  :  -121.8740868 Eh     change       -0.1371449E-04 Eh
   gradient norm :     0.0005951 Eh/α   predicted    -0.5905865E-05 ( -56.94%)
   displ. norm   :     0.1017932 α      lambda       -0.1875658E-04
   maximum displ.:     0.0571346 α      in ANC's #2, #4, #1, ...

........................................................................
.............................. CYCLE   23 ..............................
........................................................................

 iter      E             dE          RMSdq      gap      omega  full diag
   1   -123.6421512 -0.123642E+03  0.159E-02    2.04       0.0  T
   2   -123.6421514 -0.155512E-06  0.915E-03    2.04       1.2  T
   3   -123.6421513  0.709899E-07  0.183E-03    2.04       6.2  T
   4   -123.6421514 -0.101856E-06  0.754E-04    2.04      15.1  T
   5   -123.6421514 -0.103768E-07  0.329E-04    2.04      34.6  T
     SCC iter.                  ...        0 min,  0.635 sec
     gradient                   ...        0 min,  0.115 sec
 * total energy  :  -121.8741078 Eh     change       -0.2097880E-04 Eh
   gradient norm :     0.0011736 Eh/α   predicted    -0.9422643E-05 ( -55.08%)
   displ. norm   :     0.1433297 α      lambda       -0.1937614E-04
   maximum displ.:     0.0802975 α      in ANC's #2, #4, #1, ...

........................................................................
.............................. CYCLE   24 ..............................
........................................................................

 iter      E             dE          RMSdq      gap      omega  full diag
   1   -123.6420094 -0.123642E+03  0.216E-02    2.03       0.0  T
   2   -123.6420097 -0.229231E-06  0.122E-02    2.03       1.0  T
   3   -123.6420096  0.105045E-06  0.248E-03    2.03       4.6  T
   4   -123.6420097 -0.135243E-06  0.103E-03    2.03      11.0  T
   5   -123.6420097 -0.228697E-07  0.440E-04    2.03      25.9  T
   6   -123.6420097 -0.125331E-07  0.147E-04    2.03      77.3  T
     SCC iter.                  ...        0 min,  0.803 sec
     gradient                   ...        0 min,  0.115 sec
 * total energy  :  -121.8741290 Eh     change       -0.2123933E-04 Eh
   gradient norm :     0.0016290 Eh/α   predicted    -0.9776753E-05 ( -53.97%)
   displ. norm   :     0.1776106 α      lambda       -0.2176137E-04
   maximum displ.:     0.1013200 α      in ANC's #2, #4, #1, ...

........................................................................
.............................. CYCLE   25 ..............................
........................................................................

 iter      E             dE          RMSdq      gap      omega  full diag
   1   -123.6415632 -0.123642E+03  0.281E-02    2.03       0.0  T
   2   -123.6415637 -0.457457E-06  0.156E-02    2.03       1.0  T
   3   -123.6415635  0.158642E-06  0.352E-03    2.03       3.2  T
   4   -123.6415638 -0.211146E-06  0.162E-03    2.03       7.0  T
   5   -123.6415638 -0.470149E-07  0.628E-04    2.03      18.2  T
   6   -123.6415638 -0.203615E-07  0.282E-04    2.03      40.4  T
     SCC iter.                  ...        0 min,  0.781 sec
     gradient                   ...        0 min,  0.113 sec
 * total energy  :  -121.8741541 Eh     change       -0.2504116E-04 Eh
   gradient norm :     0.0015266 Eh/α   predicted    -0.1103357E-04 ( -55.94%)
   displ. norm   :     0.2276058 α      lambda       -0.2681561E-04
   maximum displ.:     0.1299727 α      in ANC's #2, #4, #1, ...

........................................................................
.............................. CYCLE   26 ..............................
........................................................................

 iter      E             dE          RMSdq      gap      omega  full diag
   1   -123.6409553 -0.123641E+03  0.318E-02    2.03       0.0  T
   2   -123.6409556 -0.377091E-06  0.182E-02    2.03       1.0  T
   3   -123.6409555  0.173438E-06  0.286E-03    2.03       4.0  T
   4   -123.6409557 -0.208757E-06  0.129E-03    2.03       8.8  T
   5   -123.6409557 -0.578601E-07  0.518E-04    2.03      22.0  T
   6   -123.6409557 -0.115711E-07  0.246E-04    2.03      46.2  T
     SCC iter.                  ...        0 min,  0.708 sec
     gradient                   ...        0 min,  0.113 sec
 * total energy  :  -121.8741832 Eh     change       -0.2910385E-04 Eh
   gradient norm :     0.0011509 Eh/α   predicted    -0.1371722E-04 ( -52.87%)
   displ. norm   :     0.3183027 α      lambda       -0.3713801E-04
   maximum displ.:     0.1813631 α      in ANC's #2, #4, #1, ...

........................................................................
.............................. CYCLE   27 ..............................
........................................................................

 iter      E             dE          RMSdq      gap      omega  full diag
   1   -123.6400696 -0.123640E+03  0.481E-02    2.03       0.0  T
   2   -123.6400711 -0.155441E-05  0.262E-02    2.03       1.0  T
   3   -123.6400708  0.265499E-06  0.520E-03    2.03       2.2  T
   4   -123.6400707  0.133702E-06  0.324E-03    2.03       3.5  T
   5   -123.6400714 -0.654084E-06  0.107E-03    2.03      10.7  T
   6   -123.6400714 -0.383401E-07  0.566E-04    2.03      20.1  T
   7   -123.6400714 -0.195799E-07  0.265E-04    2.03      43.0  T
     SCC iter.                  ...        0 min,  1.075 sec
     gradient                   ...        0 min,  0.114 sec
 * total energy  :  -121.8742128 Eh     change       -0.2966587E-04 Eh
   gradient norm :     0.0016404 Eh/α   predicted    -0.1940939E-04 ( -34.57%)
   displ. norm   :     0.2116895 α      lambda       -0.2545688E-04
   maximum displ.:     0.1216161 α      in ANC's #2, #4, #3, ...

........................................................................
.............................. CYCLE   28 ..............................
........................................................................

 iter      E             dE          RMSdq      gap      omega  full diag
   1   -123.6400321 -0.123640E+03  0.274E-02    2.03       0.0  T
   2   -123.6400327 -0.584129E-06  0.150E-02    2.03       1.0  T
   3   -123.6400325  0.146838E-06  0.378E-03    2.03       3.0  T
   4   -123.6400327 -0.202007E-06  0.162E-03    2.03       7.0  T
   5   -123.6400328 -0.582907E-07  0.625E-04    2.03      18.2  T
   6   -123.6400328 -0.234070E-07  0.262E-04    2.03      43.4  T
     SCC iter.                  ...        0 min,  0.748 sec
     gradient                   ...        0 min,  0.114 sec
 * total energy  :  -121.8742401 Eh     change       -0.2727436E-04 Eh
   gradient norm :     0.0016569 Eh/α   predicted    -0.1298282E-04 ( -52.40%)
   displ. norm   :     0.2404762 α      lambda       -0.2622495E-04
   maximum displ.:     0.1359521 α      in ANC's #2, #4, #3, ...

........................................................................
.............................. CYCLE   29 ..............................
........................................................................

 iter      E             dE          RMSdq      gap      omega  full diag
   1   -123.6410877 -0.123641E+03  0.259E-02    2.03       0.0  T
   2   -123.6410881 -0.418723E-06  0.146E-02    2.04       1.0  T
   3   -123.6410879  0.226393E-06  0.313E-03    2.04       3.6  T
   4   -123.6410882 -0.298643E-06  0.137E-03    2.04       8.3  T
   5   -123.6410882 -0.493200E-07  0.543E-04    2.04      21.0  T
   6   -123.6410883 -0.172706E-07  0.256E-04    2.04      44.5  T
     SCC iter.                  ...        0 min,  0.667 sec
     gradient                   ...        0 min,  0.118 sec
 * total energy  :  -121.8742702 Eh     change       -0.3007076E-04 Eh
   gradient norm :     0.0014357 Eh/α   predicted    -0.1345024E-04 ( -55.27%)
   displ. norm   :     0.3061051 α      lambda       -0.2680493E-04
   maximum displ.:     0.1720927 α      in ANC's #2, #3, #4, ...

........................................................................
.............................. CYCLE   30 ..............................
........................................................................

 iter      E             dE          RMSdq      gap      omega  full diag
   1   -123.6413466 -0.123641E+03  0.322E-02    2.04       0.0  T
   2   -123.6413471 -0.502995E-06  0.183E-02    2.04       1.0  T
   3   -123.6413469  0.149611E-06  0.305E-03    2.04       3.7  T
   4   -123.6413471 -0.211990E-06  0.166E-03    2.04       6.9  T
   5   -123.6413472 -0.102079E-06  0.551E-04    2.04      20.7  T
   6   -123.6413472 -0.200458E-07  0.246E-04    2.04      46.3  T
     SCC iter.                  ...        0 min,  0.822 sec
     gradient                   ...        0 min,  0.116 sec
 * total energy  :  -121.8743000 Eh     change       -0.2981105E-04 Eh
   gradient norm :     0.0010670 Eh/α   predicted    -0.1396231E-04 ( -53.16%)
   displ. norm   :     0.2412715 α      lambda       -0.1766880E-04
   maximum displ.:     0.1351478 α      in ANC's #2, #3, #1, ...

........................................................................
.............................. CYCLE   31 ..............................
........................................................................

 iter      E             dE          RMSdq      gap      omega  full diag
   1   -123.6416126 -0.123642E+03  0.269E-02    2.04       0.0  T
   2   -123.6416130 -0.381795E-06  0.151E-02    2.04       1.0  T
   3   -123.6416129  0.107209E-06  0.273E-03    2.04       4.2  T
   4   -123.6416129 -0.916020E-07  0.162E-03    2.04       7.0  T
   5   -123.6416131 -0.132061E-06  0.491E-04    2.04      23.2  T
   6   -123.6416131 -0.130018E-07  0.245E-04    2.04      46.5  T
     SCC iter.                  ...        0 min,  0.677 sec
     gradient                   ...        0 min,  0.114 sec
 * total energy  :  -121.8743200 Eh     change       -0.1999987E-04 Eh
   gradient norm :     0.0007963 Eh/α   predicted    -0.9063961E-05 ( -54.68%)
   displ. norm   :     0.2212760 α      lambda       -0.1494694E-04
   maximum displ.:     0.1226091 α      in ANC's #2, #3, #1, ...

........................................................................
.............................. CYCLE   32 ..............................
........................................................................

 iter      E             dE          RMSdq      gap      omega  full diag
   1   -123.6414414 -0.123641E+03  0.264E-02    2.04       0.0  T
   2   -123.6414417 -0.338467E-06  0.148E-02    2.04       1.0  T
   3   -123.6414415  0.206933E-06  0.286E-03    2.04       4.0  T
   4   -123.6414417 -0.152139E-06  0.173E-03    2.04       6.6  T
   5   -123.6414418 -0.168739E-06  0.497E-04    2.04      22.9  T
   6   -123.6414419 -0.131078E-07  0.238E-04    2.04      48.0  T
     SCC iter.                  ...        0 min,  0.783 sec
     gradient                   ...        0 min,  0.117 sec
 * total energy  :  -121.8743380 Eh     change       -0.1796796E-04 Eh
   gradient norm :     0.0008642 Eh/α   predicted    -0.7640299E-05 ( -57.48%)
   displ. norm   :     0.2794244 α      lambda       -0.1981157E-04
   maximum displ.:     0.1487156 α      in ANC's #2, #3, #1, ...

........................................................................
.............................. CYCLE   33 ..............................
........................................................................

 iter      E             dE          RMSdq      gap      omega  full diag
   1   -123.6412249 -0.123641E+03  0.355E-02    2.04       0.0  T
   2   -123.6412255 -0.566885E-06  0.201E-02    2.04       1.0  T
   3   -123.6412249  0.637914E-06  0.406E-03    2.04       2.8  T
   4   -123.6412255 -0.597132E-06  0.224E-03    2.04       5.1  T
   5   -123.6412257 -0.268079E-06  0.644E-04    2.04      17.7  T
   6   -123.6412258 -0.237530E-07  0.286E-04    2.04      39.8  T
     SCC iter.                  ...        0 min,  0.802 sec
     gradient                   ...        0 min,  0.118 sec
 * total energy  :  -121.8743614 Eh     change       -0.2343089E-04 Eh
   gradient norm :     0.0012581 Eh/α   predicted    -0.1025194E-04 ( -56.25%)
   displ. norm   :     0.3722511 α      lambda       -0.2426845E-04
   maximum displ.:     0.1924299 α      in ANC's #2, #3, #1, ...

........................................................................
.............................. CYCLE   34 ..............................
........................................................................

 iter      E             dE          RMSdq      gap      omega  full diag
   1   -123.6402939 -0.123640E+03  0.482E-02    2.04       0.0  T
   2   -123.6402949 -0.102218E-05  0.274E-02    2.04       1.0  T
   3   -123.6402931  0.181177E-05  0.597E-03    2.04       1.9  T
   4   -123.6402950 -0.192915E-05  0.279E-03    2.04       4.1  T
   5   -123.6402954 -0.354264E-06  0.970E-04    2.04      11.8  T
   6   -123.6402954 -0.555008E-07  0.377E-04    2.04      30.2  T
     SCC iter.                  ...        0 min,  0.796 sec
     gradient                   ...        0 min,  0.115 sec
 * total energy  :  -121.8743887 Eh     change       -0.2727314E-04 Eh
   gradient norm :     0.0017141 Eh/α   predicted    -0.1288522E-04 ( -52.75%)
   displ. norm   :     0.3367976 α      lambda       -0.2412114E-04
   maximum displ.:     0.1626419 α      in ANC's #3, #2, #1, ...

........................................................................
.............................. CYCLE   35 ..............................
........................................................................

 iter      E             dE          RMSdq      gap      omega  full diag
   1   -123.6402981 -0.123640E+03  0.461E-02    2.04       0.0  T
   2   -123.6402991 -0.999739E-06  0.265E-02    2.04       1.0  T
   3   -123.6402967  0.244905E-05  0.636E-03    2.04       1.8  T
   4   -123.6402994 -0.275196E-05  0.237E-03    2.05       4.8  T
   5   -123.6402996 -0.212607E-06  0.105E-03    2.04      10.8  T
   6   -123.6402997 -0.599090E-07  0.392E-04    2.04      29.0  T
   7   -123.6402997 -0.612832E-08  0.164E-04    2.04      69.4  T
     SCC iter.                  ...        0 min,  0.990 sec
     gradient                   ...        0 min,  0.115 sec
 * total energy  :  -121.8744164 Eh     change       -0.2775675E-04 Eh
   gradient norm :     0.0017222 Eh/α   predicted    -0.1267139E-04 ( -54.35%)
   displ. norm   :     0.3411176 α      lambda       -0.2793124E-04
   maximum displ.:     0.1663327 α      in ANC's #3, #2, #8, ...

........................................................................
.............................. CYCLE   36 ..............................
........................................................................

 iter      E             dE          RMSdq      gap      omega  full diag
   1   -123.6405038 -0.123641E+03  0.485E-02    2.05       0.0  T
   2   -123.6405050 -0.119607E-05  0.280E-02    2.05       1.0  T
   3   -123.6405018  0.318431E-05  0.715E-03    2.05       1.6  T
   4   -123.6405055 -0.363602E-05  0.236E-03    2.05       4.8  T
   5   -123.6405057 -0.191767E-06  0.118E-03    2.05       9.7  T
   6   -123.6405057 -0.692552E-07  0.450E-04    2.05      25.3  T
   7   -123.6405058 -0.900924E-08  0.175E-04    2.05      65.3  T
     SCC iter.                  ...        0 min,  1.000 sec
     gradient                   ...        0 min,  0.114 sec
 * total energy  :  -121.8744488 Eh     change       -0.3239007E-04 Eh
   gradient norm :     0.0015087 Eh/α   predicted    -0.1469021E-04 ( -54.65%)
   displ. norm   :     0.2990895 α      lambda       -0.2994736E-04
   maximum displ.:     0.1434630 α      in ANC's #3, #8, #2, ...

........................................................................
.............................. CYCLE   37 ..............................
........................................................................

 iter      E             dE          RMSdq      gap      omega  full diag
   1   -123.6414275 -0.123641E+03  0.459E-02    2.06       0.0  T
   2   -123.6414287 -0.121852E-05  0.266E-02    2.06       1.0  T
   3   -123.6414255  0.321409E-05  0.712E-03    2.06       1.6  T
   4   -123.6414292 -0.369837E-05  0.214E-03    2.06       5.3  T
   5   -123.6414293 -0.165146E-06  0.116E-03    2.06       9.8  T
   6   -123.6414294 -0.547462E-07  0.475E-04    2.06      24.0  T
   7   -123.6414294 -0.110987E-07  0.169E-04    2.06      67.5  T
     SCC iter.                  ...        0 min,  0.858 sec
     gradient                   ...        0 min,  0.114 sec
 * total energy  :  -121.8744824 Eh     change       -0.3358398E-04 Eh
   gradient norm :     0.0013266 Eh/α   predicted    -0.1557194E-04 ( -53.63%)
   displ. norm   :     0.2909730 α      lambda       -0.2593266E-04
   maximum displ.:     0.1449310 α      in ANC's #3, #8, #14, ...

........................................................................
.............................. CYCLE   38 ..............................
........................................................................

 iter      E             dE          RMSdq      gap      omega  full diag
   1   -123.6414110 -0.123641E+03  0.460E-02    2.07       0.0  T
   2   -123.6414123 -0.128549E-05  0.266E-02    2.07       1.0  T
   3   -123.6414094  0.287262E-05  0.671E-03    2.07       1.7  T
   4   -123.6414127 -0.331498E-05  0.220E-03    2.07       5.2  T
   5   -123.6414129 -0.178549E-06  0.114E-03    2.07      10.0  T
   6   -123.6414130 -0.620976E-07  0.441E-04    2.07      25.8  T
   7   -123.6414130 -0.843414E-08  0.174E-04    2.07      65.5  T
     SCC iter.                  ...        0 min,  0.972 sec
     gradient                   ...        0 min,  0.125 sec
 * total energy  :  -121.8745106 Eh     change       -0.2820975E-04 Eh
   gradient norm :     0.0014903 Eh/α   predicted    -0.1345610E-04 ( -52.30%)
   displ. norm   :     0.2170080 α      lambda       -0.2332090E-04
   maximum displ.:     0.1132392 α      in ANC's #8, #3, #14, ...

........................................................................
.............................. CYCLE   39 ..............................
........................................................................

 iter      E             dE          RMSdq      gap      omega  full diag
   1   -123.6427068 -0.123643E+03  0.383E-02    2.07       0.0  T
   2   -123.6427078 -0.101760E-05  0.222E-02    2.07       1.0  T
   3   -123.6427060  0.172601E-05  0.533E-03    2.07       2.1  T
   4   -123.6427081 -0.201965E-05  0.172E-03    2.07       6.6  T
   5   -123.6427082 -0.111773E-06  0.917E-04    2.07      12.4  T
   6   -123.6427082 -0.348975E-07  0.427E-04    2.07      26.7  T
     SCC iter.                  ...        0 min,  0.938 sec
     gradient                   ...        0 min,  0.114 sec
 * total energy  :  -121.8745323 Eh     change       -0.2165752E-04 Eh
   gradient norm :     0.0013333 Eh/α   predicted    -0.1190725E-04 ( -45.02%)
   displ. norm   :     0.2146753 α      lambda        0.6025638E-05
   maximum displ.:     0.1120457 α      in ANC's #8, #3, #14, ...

........................................................................
.............................. CYCLE   40 ..............................
........................................................................

 iter      E             dE          RMSdq      gap      omega  full diag
   1   -123.6434940 -0.123643E+03  0.378E-02    2.08       0.0  T
   2   -123.6434949 -0.968438E-06  0.219E-02    2.08       1.0  T
   3   -123.6434931  0.181863E-05  0.535E-03    2.08       2.1  T
   4   -123.6434952 -0.210032E-05  0.173E-03    2.08       6.6  T
   5   -123.6434953 -0.123551E-06  0.896E-04    2.08      12.7  T
   6   -123.6434954 -0.334614E-07  0.415E-04    2.08      27.5  T
     SCC iter.                  ...        0 min,  0.908 sec
     gradient                   ...        0 min,  0.113 sec
 * total energy  :  -121.8745289 Eh     change        0.3345730E-05 Eh
   gradient norm :     0.0019985 Eh/α   predicted     0.3073688E-05 (  -8.13%)
   displ. norm   :     0.0785110 α      lambda       -0.1883398E-04
   maximum displ.:     0.0298872 α      in ANC's #8, #4, #2, ...

........................................................................
.............................. CYCLE   41 ..............................
........................................................................

 iter      E             dE          RMSdq      gap      omega  full diag
   1   -123.6414537 -0.123641E+03  0.132E-02    2.08       0.0  T
   2   -123.6414539 -0.191118E-06  0.757E-03    2.08       1.5  T
   3   -123.6414537  0.188231E-06  0.215E-03    2.08       5.3  T
   4   -123.6414539 -0.230196E-06  0.739E-04    2.08      15.4  T
   5   -123.6414539 -0.127231E-07  0.401E-04    2.08      28.4  T
     SCC iter.                  ...        0 min,  0.501 sec
     gradient                   ...        0 min,  0.115 sec
 * total energy  :  -121.8745452 Eh     change       -0.1633026E-04 Eh
   gradient norm :     0.0012649 Eh/α   predicted    -0.9444500E-05 ( -42.17%)
   displ. norm   :     0.1433857 α      lambda       -0.1373505E-04
   maximum displ.:     0.0650380 α      in ANC's #8, #3, #14, ...

........................................................................
.............................. CYCLE   42 ..............................
........................................................................

 iter      E             dE          RMSdq      gap      omega  full diag
   1   -123.6419652 -0.123642E+03  0.239E-02    2.07       0.0  T
   2   -123.6419656 -0.396989E-06  0.140E-02    2.07       1.0  T
   3   -123.6419648  0.761318E-06  0.359E-03    2.07       3.2  T
   4   -123.6419657 -0.873418E-06  0.115E-03    2.07       9.9  T
   5   -123.6419658 -0.607290E-07  0.566E-04    2.07      20.1  T
   6   -123.6419658 -0.122285E-07  0.264E-04    2.07      43.2  T
     SCC iter.                  ...        0 min,  0.780 sec
     gradient                   ...        0 min,  0.115 sec
 * total energy  :  -121.8745548 Eh     change       -0.9514092E-05 Eh
   gradient norm :     0.0009700 Eh/α   predicted    -0.6931192E-05 ( -27.15%)
   displ. norm   :     0.1013129 α      lambda       -0.9320701E-05
   maximum displ.:     0.0400339 α      in ANC's #8, #3, #6, ...
 * RMSD in coord.:     0.4462407 α      energy gain  -0.5272188E-03 Eh

generating ANC from exact Hessian ...
Using Lindh-Hessian (1995)
 Shifting diagonal of input Hessian by    1.0111654231842102E-002
 Lowest  eigenvalues of input Hessian
    0.010000    0.000000    0.000000    0.000000    0.000000    0.000000
    0.000000    0.010185    0.010274    0.010358    0.010468    0.010722
    0.010799    0.010865    0.011084    0.011248    0.011462    0.011873
 Highest eigenvalues
    2.004341    2.023547    2.026284    2.073401    2.113461    2.124805


........................................................................
.............................. CYCLE   43 ..............................
........................................................................

 iter      E             dE          RMSdq      gap      omega  full diag
   1   -123.6417245 -0.123642E+03  0.180E-02    2.07       0.0  T
   2   -123.6417247 -0.166165E-06  0.104E-02    2.07       1.1  T
   3   -123.6417243  0.357129E-06  0.227E-03    2.07       5.0  T
   4   -123.6417248 -0.424100E-06  0.728E-04    2.07      15.7  T
   5   -123.6417248 -0.126833E-07  0.385E-04    2.07      29.6  T
     SCC iter.                  ...        0 min,  0.617 sec
     gradient                   ...        0 min,  0.114 sec
 * total energy  :  -121.8745650 Eh     change       -0.1020208E-04 Eh
   gradient norm :     0.0007116 Eh/α   predicted     0.0000000E+00 (-100.00%)
   displ. norm   :     0.0192331 α      lambda       -0.2608406E-05
   maximum displ.:     0.0094039 α      in ANC's #3, #5, #15, ...

........................................................................
.............................. CYCLE   44 ..............................
........................................................................

 iter      E             dE          RMSdq      gap      omega  full diag
   1   -123.6419505 -0.123642E+03  0.644E-03    2.07       0.0  T
   2   -123.6419506 -0.742778E-07  0.302E-03    2.07       3.8  T
   3   -123.6419506  0.431798E-08  0.105E-03    2.07      10.9  T
   4   -123.6419506 -0.123398E-07  0.470E-04    2.07      24.2  T
   5   -123.6419506 -0.311566E-08  0.183E-04    2.07      62.4  T
     SCC iter.                  ...        0 min,  0.535 sec
     gradient                   ...        0 min,  0.115 sec
 * total energy  :  -121.8745676 Eh     change       -0.2637032E-05 Eh
   gradient norm :     0.0003715 Eh/α   predicted    -0.1373559E-05 ( -47.91%)
   displ. norm   :     0.0569143 α      lambda       -0.5835100E-05
   maximum displ.:     0.0258319 α      in ANC's #3, #5, #16, ...

........................................................................
.............................. CYCLE   45 ..............................
........................................................................

 iter      E             dE          RMSdq      gap      omega  full diag
   1   -123.6424318 -0.123642E+03  0.103E-02    2.07       0.0  T
   2   -123.6424319 -0.133039E-06  0.590E-03    2.07       1.9  T
   3   -123.6424319  0.571241E-07  0.159E-03    2.07       7.1  T
   4   -123.6424320 -0.689913E-07  0.671E-04    2.07      17.0  T
   5   -123.6424320 -0.170135E-07  0.337E-04    2.07      33.9  T
     SCC iter.                  ...        0 min,  0.553 sec
     gradient                   ...        0 min,  0.119 sec
 * total energy  :  -121.8745721 Eh     change       -0.4464055E-05 Eh
   gradient norm :     0.0011290 Eh/α   predicted    -0.2925415E-05 ( -34.47%)
   displ. norm   :     0.0703332 α      lambda       -0.6184042E-05
   maximum displ.:     0.0344498 α      in ANC's #3, #5, #16, ...

........................................................................
.............................. CYCLE   46 ..............................
........................................................................

 iter      E             dE          RMSdq      gap      omega  full diag
   1   -123.6423155 -0.123642E+03  0.131E-02    2.07       0.0  T
   2   -123.6423157 -0.142372E-06  0.699E-03    2.07       1.6  T
   3   -123.6423156  0.614403E-07  0.173E-03    2.07       6.6  T
   4   -123.6423157 -0.765102E-07  0.875E-04    2.07      13.0  T
   5   -123.6423157 -0.260738E-07  0.209E-04    2.07      54.5  T
     SCC iter.                  ...        0 min,  0.635 sec
     gradient                   ...        0 min,  0.114 sec
 * total energy  :  -121.8745786 Eh     change       -0.6491172E-05 Eh
   gradient norm :     0.0013114 Eh/α   predicted    -0.3099875E-05 ( -52.24%)
   displ. norm   :     0.0964566 α      lambda       -0.7196104E-05
   maximum displ.:     0.0488704 α      in ANC's #3, #5, #4, ...

........................................................................
.............................. CYCLE   47 ..............................
........................................................................

 iter      E             dE          RMSdq      gap      omega  full diag
   1   -123.6417663 -0.123642E+03  0.171E-02    2.07       0.0  T
   2   -123.6417666 -0.260237E-06  0.889E-03    2.07       1.3  T
   3   -123.6417665  0.151196E-06  0.259E-03    2.07       4.4  T
   4   -123.6417666 -0.191106E-06  0.121E-03    2.07       9.4  T
   5   -123.6417667 -0.363927E-07  0.397E-04    2.07      28.7  T
   6   -123.6417667 -0.879149E-08  0.164E-04    2.07      69.6  T
     SCC iter.                  ...        0 min,  0.784 sec
     gradient                   ...        0 min,  0.114 sec
 * total energy  :  -121.8745866 Eh     change       -0.8042543E-05 Eh
   gradient norm :     0.0011223 Eh/α   predicted    -0.3615390E-05 ( -55.05%)
   displ. norm   :     0.1564175 α      lambda       -0.1019296E-04
   maximum displ.:     0.0809982 α      in ANC's #3, #5, #7, ...

........................................................................
.............................. CYCLE   48 ..............................
........................................................................

 iter      E             dE          RMSdq      gap      omega  full diag
   1   -123.6412907 -0.123641E+03  0.245E-02    2.07       0.0  T
   2   -123.6412911 -0.449720E-06  0.132E-02    2.07       1.0  T
   3   -123.6412909  0.213239E-06  0.313E-03    2.07       3.6  T
   4   -123.6412911 -0.248906E-06  0.157E-03    2.07       7.3  T
   5   -123.6412912 -0.100500E-06  0.443E-04    2.07      25.7  T
   6   -123.6412913 -0.640580E-08  0.175E-04    2.07      65.0  T
     SCC iter.                  ...        0 min,  0.640 sec
     gradient                   ...        0 min,  0.115 sec
 * total energy  :  -121.8745980 Eh     change       -0.1137802E-04 Eh
   gradient norm :     0.0010451 Eh/α   predicted    -0.5156704E-05 ( -54.68%)
   displ. norm   :     0.2044233 α      lambda       -0.1223078E-04
   maximum displ.:     0.1096140 α      in ANC's #3, #5, #7, ...

........................................................................
.............................. CYCLE   49 ..............................
........................................................................

 iter      E             dE          RMSdq      gap      omega  full diag
   1   -123.6411899 -0.123641E+03  0.305E-02    2.07       0.0  T
   2   -123.6411906 -0.644714E-06  0.166E-02    2.07       1.0  T
   3   -123.6411901  0.464410E-06  0.411E-03    2.07       2.8  T
   4   -123.6411907 -0.553743E-06  0.201E-03    2.07       5.7  T
   5   -123.6411908 -0.139527E-06  0.486E-04    2.07      23.5  T
   6   -123.6411908 -0.525867E-08  0.236E-04    2.07      48.3  T
     SCC iter.                  ...        0 min,  0.778 sec
     gradient                   ...        0 min,  0.114 sec
 * total energy  :  -121.8746124 Eh     change       -0.1446308E-04 Eh
   gradient norm :     0.0011761 Eh/α   predicted    -0.6229959E-05 ( -56.93%)
   displ. norm   :     0.2127428 α      lambda       -0.1277381E-04
   maximum displ.:     0.1183449 α      in ANC's #3, #5, #7, ...

........................................................................
.............................. CYCLE   50 ..............................
........................................................................

 iter      E             dE          RMSdq      gap      omega  full diag
   1   -123.6414093 -0.123641E+03  0.308E-02    2.07       0.0  T
   2   -123.6414100 -0.696553E-06  0.166E-02    2.07       1.0  T
   3   -123.6414097  0.302090E-06  0.392E-03    2.07       2.9  T
   4   -123.6414100 -0.325176E-06  0.210E-03    2.07       5.4  T
   5   -123.6414102 -0.190679E-06  0.509E-04    2.07      22.4  T
   6   -123.6414102 -0.550675E-08  0.243E-04    2.07      46.9  T
     SCC iter.                  ...        0 min,  0.783 sec
     gradient                   ...        0 min,  0.115 sec
 * total energy  :  -121.8746289 Eh     change       -0.1641265E-04 Eh
   gradient norm :     0.0012266 Eh/α   predicted    -0.6517286E-05 ( -60.29%)
   displ. norm   :     0.2333355 α      lambda       -0.1514325E-04
   maximum displ.:     0.1333787 α      in ANC's #3, #5, #7, ...

........................................................................
.............................. CYCLE   51 ..............................
........................................................................

 iter      E             dE          RMSdq      gap      omega  full diag
   1   -123.6418357 -0.123642E+03  0.326E-02    2.07       0.0  T
   2   -123.6418365 -0.793047E-06  0.175E-02    2.07       1.0  T
   3   -123.6418363  0.240707E-06  0.404E-03    2.07       2.8  T
   4   -123.6418365 -0.229192E-06  0.225E-03    2.07       5.1  T
   5   -123.6418367 -0.240046E-06  0.533E-04    2.07      21.4  T
   6   -123.6418367 -0.569639E-08  0.256E-04    2.07      44.6  T
     SCC iter.                  ...        0 min,  0.903 sec
     gradient                   ...        0 min,  0.114 sec
 * total energy  :  -121.8746491 Eh     change       -0.2024129E-04 Eh
   gradient norm :     0.0011583 Eh/α   predicted    -0.7758745E-05 ( -61.67%)
   displ. norm   :     0.2798650 α      lambda       -0.1914463E-04
   maximum displ.:     0.1619911 α      in ANC's #3, #5, #7, ...

........................................................................
.............................. CYCLE   52 ..............................
........................................................................

 iter      E             dE          RMSdq      gap      omega  full diag
   1   -123.6420579 -0.123642E+03  0.383E-02    2.07       0.0  T
   2   -123.6420590 -0.112915E-05  0.204E-02    2.07       1.0  T
   3   -123.6420589  0.187483E-06  0.461E-03    2.08       2.5  T
   4   -123.6420590 -0.106007E-06  0.267E-03    2.07       4.3  T
   5   -123.6420593 -0.382335E-06  0.607E-04    2.08      18.8  T
   6   -123.6420593 -0.775781E-08  0.301E-04    2.08      37.9  T
     SCC iter.                  ...        0 min,  0.705 sec
     gradient                   ...        0 min,  0.115 sec
 * total energy  :  -121.8746754 Eh     change       -0.2634910E-04 Eh
   gradient norm :     0.0010870 Eh/α   predicted    -0.9907153E-05 ( -62.40%)
   displ. norm   :     0.3772579 α      lambda       -0.2686234E-04
   maximum displ.:     0.2192250 α      in ANC's #3, #5, #4, ...

........................................................................
.............................. CYCLE   53 ..............................
........................................................................

 iter      E             dE          RMSdq      gap      omega  full diag
   1   -123.6419768 -0.123642E+03  0.508E-02    2.08       0.0  T
   2   -123.6419788 -0.200336E-05  0.269E-02    2.08       1.0  T
   3   -123.6419785  0.266689E-06  0.607E-03    2.08       1.9  T
   4   -123.6419786 -0.444316E-07  0.355E-03    2.08       3.2  T
   5   -123.6419793 -0.727911E-06  0.848E-04    2.08      13.4  T
   6   -123.6419793 -0.200707E-07  0.442E-04    2.08      25.8  T
     SCC iter.                  ...        0 min,  0.704 sec
     gradient                   ...        0 min,  0.113 sec
 * total energy  :  -121.8747128 Eh     change       -0.3731524E-04 Eh
   gradient norm :     0.0010784 Eh/α   predicted    -0.1428179E-04 ( -61.73%)
   displ. norm   :     0.5238884 α      lambda       -0.3797156E-04
   maximum displ.:     0.3058932 α      in ANC's #3, #5, #4, ...

........................................................................
.............................. CYCLE   54 ..............................
........................................................................

 iter      E             dE          RMSdq      gap      omega  full diag
   1   -123.6413481 -0.123641E+03  0.699E-02    2.09       0.0  T
   2   -123.6413520 -0.384685E-05  0.368E-02    2.09       1.0  T
   3   -123.6413515  0.480206E-06  0.840E-03    2.09       1.4  T
   4   -123.6413514  0.998403E-07  0.497E-03    2.09       2.3  T
   5   -123.6413529 -0.149740E-05  0.127E-03    2.09       9.0  T
   6   -123.6413530 -0.637518E-07  0.635E-04    2.09      17.9  T
   7   -123.6413530 -0.127839E-07  0.349E-04    2.09      32.7  T
     SCC iter.                  ...        0 min,  1.064 sec
     gradient                   ...        0 min,  0.121 sec
 * total energy  :  -121.8747648 Eh     change       -0.5199306E-04 Eh
   gradient norm :     0.0014413 Eh/α   predicted    -0.2130268E-04 ( -59.03%)
   displ. norm   :     0.6696295 α      lambda       -0.4916457E-04
   maximum displ.:     0.3934530 α      in ANC's #3, #5, #4, ...

........................................................................
.............................. CYCLE   55 ..............................
........................................................................

 iter      E             dE          RMSdq      gap      omega  full diag
   1   -123.6403129 -0.123640E+03  0.892E-02    2.09       0.0  T
   2   -123.6403191 -0.628947E-05  0.467E-02    2.09       1.0  T
   3   -123.6403184  0.755915E-06  0.108E-02    2.10       1.1  T
   4   -123.6403183  0.819219E-07  0.621E-03    2.10       1.8  T
   5   -123.6403206 -0.230816E-05  0.158E-03    2.10       7.2  T
   6   -123.6403207 -0.962692E-07  0.777E-04    2.10      14.7  T
   7   -123.6403207 -0.171216E-07  0.436E-04    2.10      26.2  T
     SCC iter.                  ...        0 min,  0.894 sec
     gradient                   ...        0 min,  0.115 sec
 * total energy  :  -121.8748292 Eh     change       -0.6445333E-04 Eh
   gradient norm :     0.0020798 Eh/α   predicted    -0.2948432E-04 ( -54.25%)
   displ. norm   :     0.4933420 α      lambda       -0.5700612E-04
   maximum displ.:     0.2926295 α      in ANC's #3, #5, #4, ...

........................................................................
.............................. CYCLE   56 ..............................
........................................................................

 iter      E             dE          RMSdq      gap      omega  full diag
   1   -123.6401431 -0.123640E+03  0.660E-02    2.10       0.0  T
   2   -123.6401465 -0.345719E-05  0.344E-02    2.10       1.0  T
   3   -123.6401460  0.496623E-06  0.814E-03    2.10       1.4  T
   4   -123.6401460  0.654173E-08  0.470E-03    2.10       2.4  T
   5   -123.6401473 -0.128648E-05  0.121E-03    2.10       9.4  T
   6   -123.6401474 -0.648475E-07  0.575E-04    2.10      19.8  T
   7   -123.6401474 -0.101212E-07  0.318E-04    2.10      35.9  T
     SCC iter.                  ...        0 min,  0.906 sec
     gradient                   ...        0 min,  0.118 sec
 * total energy  :  -121.8748802 Eh     change       -0.5095084E-04 Eh
   gradient norm :     0.0022540 Eh/α   predicted    -0.3543999E-04 ( -30.44%)
   displ. norm   :     0.6109850 α      lambda       -0.7740787E-04
   maximum displ.:     0.3652773 α      in ANC's #3, #5, #4, ...

........................................................................
.............................. CYCLE   57 ..............................
........................................................................

 iter      E             dE          RMSdq      gap      omega  full diag
   1   -123.6400798 -0.123640E+03  0.828E-02    2.11       0.0  T
   2   -123.6400852 -0.543163E-05  0.430E-02    2.11       1.0  T
   3   -123.6400843  0.916193E-06  0.104E-02    2.11       1.1  T
   4   -123.6400843  0.119412E-07  0.603E-03    2.11       1.9  T
   5   -123.6400864 -0.211244E-05  0.162E-03    2.11       7.0  T
   6   -123.6400866 -0.136506E-06  0.716E-04    2.11      15.9  T
   7   -123.6400866 -0.180118E-07  0.381E-04    2.11      29.9  T
     SCC iter.                  ...        0 min,  0.953 sec
     gradient                   ...        0 min,  0.114 sec
 * total energy  :  -121.8749474 Eh     change       -0.6719861E-04 Eh
   gradient norm :     0.0022876 Eh/α   predicted    -0.5315132E-04 ( -20.90%)
   displ. norm   :     0.5828841 α      lambda       -0.8742980E-04
   maximum displ.:     0.3524553 α      in ANC's #3, #5, #4, ...

........................................................................
.............................. CYCLE   58 ..............................
........................................................................

 iter      E             dE          RMSdq      gap      omega  full diag
   1   -123.6410954 -0.123641E+03  0.813E-02    2.12       0.0  T
   2   -123.6411005 -0.514962E-05  0.422E-02    2.12       1.0  T
   3   -123.6410994  0.114738E-05  0.103E-02    2.12       1.1  T
   4   -123.6410995 -0.811371E-07  0.610E-03    2.12       1.9  T
   5   -123.6411016 -0.216194E-05  0.168E-03    2.12       6.8  T
   6   -123.6411018 -0.163323E-06  0.687E-04    2.12      16.6  T
   7   -123.6411018 -0.181817E-07  0.359E-04    2.12      31.8  T
     SCC iter.                  ...        0 min,  0.957 sec
     gradient                   ...        0 min,  0.117 sec
 * total energy  :  -121.8750218 Eh     change       -0.7441785E-04 Eh
   gradient norm :     0.0019684 Eh/α   predicted    -0.5856997E-04 ( -21.30%)
   displ. norm   :     0.9485907 α      lambda       -0.9446260E-04
   maximum displ.:     0.5819974 α      in ANC's #3, #5, #4, ...

........................................................................
[...]
       114                         -0.3628385              -9.8733
       115                         -0.3562112              -9.6930
       116                         -0.3553997              -9.6709
       117                         -0.3527809              -9.5997
       118                         -0.3374233              -9.1818
       119                         -0.3330580              -9.0630
       120                         -0.3035972              -8.2613
       121                         -0.2984896              -8.1223
       122                         -0.2866049              -7.7989
       ...                                ...                  ...
       221                          0.9910123              26.9668
      -------------------------------------------------------------
                  HL-Gap            0.0823602 Eh            2.2411 eV
             Fermi-level           -0.4327778 Eh          -11.7765 eV

     #   Z          covCN         q      C6AA      α(0)
     1   6 C        3.783    -0.044    21.374     6.586
     2   7 N        2.684    -0.111    23.420     7.188
     3   6 C        3.230     0.049    26.119     8.299
     4   6 C        2.914    -0.045    29.110     8.847
     5   6 C        2.920    -0.030    28.751     8.793
     6   6 C        2.986     0.014    27.686     8.631
     7   6 C        2.919    -0.029    28.733     8.790
     8   6 C        2.915    -0.022    28.550     8.762
     9   6 C        2.916    -0.024    28.593     8.769
    10   6 C        2.916    -0.034    28.849     8.808
    11   6 C        2.988     0.012    27.749     8.641
    12   6 C        2.978    -0.007    28.181     8.708
    13   6 C        2.976    -0.011    28.280     8.723
    14   6 C        3.059     0.050    26.823     8.493
    15   6 C        2.916    -0.054    29.338     8.882
    16   6 C        2.918    -0.032    28.797     8.800
    17   6 C        2.987     0.013    27.706     8.634
    18   6 C        2.920    -0.030    28.744     8.792
    19   6 C        2.915    -0.021    28.539     8.760
    20   6 C        2.917    -0.022    28.550     8.762
    21   6 C        2.917    -0.033    28.825     8.804
    22   6 C        2.988     0.012    27.735     8.639
    23   7 N        2.683    -0.124    23.708     7.231
    24   6 C        3.868    -0.036    21.165     6.542
    25  15 P        4.575     0.284   148.223    21.870
    26  16 S        1.897    -0.069   143.922    20.192
    27  16 S        2.059    -0.030   142.286    20.076
    28   6 C        2.972     0.044    27.020     8.526
    29   6 C        2.948    -0.029    28.713     8.789
    30   6 C        2.922    -0.020    28.499     8.755
    31   6 C        2.977    -0.018    28.452     8.750
    32   6 C        3.336     0.488    17.268     6.581
    33   9 F        0.791    -0.208    11.322     3.975
    34   9 F        0.791    -0.194    11.177     3.949
    35   9 F        0.791    -0.195    11.186     3.951
    36   6 C        2.922    -0.019    28.478     8.751
    37   6 C        2.972    -0.029    28.723     8.791
    38   7 N        2.680    -0.129    23.796     7.245
    39   6 C        3.892    -0.044    21.304     6.562
    40   6 C        3.920     0.084    19.137     6.217
    41   6 C        3.765    -0.130    23.046     6.842
    42   6 C        3.761    -0.125    22.952     6.829
    43   6 C        3.759    -0.128    23.008     6.838
    44   1 H        0.925     0.072     2.064     2.247
    45   1 H        0.924     0.065     2.143     2.289
    46   1 H        0.924     0.073     2.052     2.240
    47   1 H        0.926     0.044     2.395     2.420
    48   1 H        0.926     0.058     2.223     2.331
    49   1 H        0.926     0.051     2.301     2.372
    50   1 H        0.926     0.054     2.275     2.359
    51   1 H        0.926     0.049     2.332     2.388
    52   1 H        0.926     0.038     2.470     2.458
    53   1 H        0.926     0.041     2.439     2.442
    54   1 H        0.926     0.056     2.252     2.347
    55   1 H        0.926     0.050     2.319     2.381
    56   1 H        0.926     0.053     2.284     2.364
    57   1 H        0.926     0.049     2.328     2.386
    58   1 H        0.926     0.038     2.472     2.459
    59   1 H        0.924     0.063     2.167     2.302
    60   1 H        0.925     0.066     2.132     2.283
    61   1 H        0.924     0.059     2.205     2.322
    62   1 H        0.926     0.068     2.105     2.269
    63   1 H        0.926     0.081     1.972     2.196
    64   1 H        0.926     0.078     2.000     2.212
    65   1 H        0.926     0.065     2.144     2.290
    66   1 H        0.925     0.076     2.016     2.220
    67   1 H        0.925     0.068     2.105     2.269
    68   1 H        0.924     0.059     2.217     2.328
    69   1 H        0.925     0.059     2.216     2.328
    70   1 H        0.925     0.075     2.036     2.231
    71   1 H        0.925     0.061     2.183     2.311
    72   1 H        0.925     0.059     2.209     2.324
    73   1 H        0.925     0.071     2.076     2.253
    74   1 H        0.925     0.052     2.301     2.372
    75   1 H        0.925     0.055     2.260     2.351
    76   1 H        0.925     0.070     2.085     2.258
    77   1 H        0.925     0.051     2.310     2.377

 Mol. C6AA /au·bohr⁶  :      81506.384336
 Mol. C8AA /au·bohr⁸  :    2193624.703000
 Mol. α(0) /au        :        454.353023


Wiberg/Mayer (AO) data.
largest (>0.10) Wiberg bond orders for each atom

 ---------------------------------------------------------------------------
     #   Z sym  total        # sym  WBO       # sym  WBO       # sym  WBO
 ---------------------------------------------------------------------------
     1   6 C    3.955 --    45 H    0.976    46 H    0.975     2 N    0.970
                            44 H    0.969
     2   7 N    3.446 --    25 P    1.254     1 C    0.970     3 C    0.958
     3   6 C    3.949 --    12 C    1.456     4 C    1.291     2 N    0.958
     4   6 C    3.988 --     5 C    1.553     3 C    1.291    47 H    0.964
     5   6 C    3.984 --     4 C    1.553     6 C    1.273    48 H    0.966
                            12 C    0.106
     6   6 C    3.989 --     7 C    1.281     5 C    1.273    11 C    1.253
     7   6 C    3.988 --     8 C    1.554     6 C    1.281    49 H    0.967
                            10 C    0.117
     8   6 C    3.987 --     7 C    1.554     9 C    1.323    50 H    0.969
     9   6 C    3.989 --    10 C    1.550     8 C    1.323    51 H    0.970
    10   6 C    3.989 --     9 C    1.550    11 C    1.283    52 H    0.965
                             7 C    0.117
    11   6 C    3.987 --    10 C    1.283     6 C    1.253    12 C    1.234
    12   6 C    3.986 --     3 C    1.456    11 C    1.234    13 C    1.031
                             5 C    0.106
    13   6 C    3.984 --    14 C    1.456    22 C    1.232    12 C    1.031
                            16 C    0.106
    14   6 C    3.946 --    13 C    1.456    15 C    1.285    23 N    0.975
    15   6 C    3.985 --    16 C    1.554    14 C    1.285    53 H    0.963
    16   6 C    3.984 --    15 C    1.554    17 C    1.275    54 H    0.966
                            13 C    0.106
    17   6 C    3.989 --    18 C    1.280    16 C    1.275    22 C    1.254
    18   6 C    3.988 --    19 C    1.555    17 C    1.280    55 H    0.967
                            21 C    0.117
    19   6 C    3.986 --    18 C    1.555    20 C    1.323    56 H    0.969
    20   6 C    3.990 --    21 C    1.552    19 C    1.323    57 H    0.970
    21   6 C    3.990 --    20 C    1.552    22 C    1.285    58 H    0.965
                            18 C    0.117
    22   6 C    3.986 --    21 C    1.285    17 C    1.254    13 C    1.232
    23   7 N    3.430 --    25 P    1.218    14 C    0.975    24 C    0.974
    24   6 C    3.963 --    60 H    0.978    23 N    0.974    61 H    0.972
                            59 H    0.961
    25  15 P    5.110 --     2 N    1.254    38 N    1.254    23 N    1.218
                            26 S    0.914
    26  16 S    2.443 --    27 S    1.184    25 P    0.914
    27  16 S    2.408 --    26 S    1.184    28 C    0.996
    28   6 C    3.963 --    29 C    1.403    37 C    1.398    27 S    0.996
    29   6 C    3.987 --    30 C    1.445    28 C    1.403    62 H    0.963
                            36 C    0.109
    30   6 C    3.986 --    29 C    1.445    31 C    1.410    63 H    0.963
                            37 C    0.108
    31   6 C    3.973 --    36 C    1.412    30 C    1.410    32 C    0.948
    32   6 C    3.834 --    34 F    0.959    35 F    0.958    31 C    0.948
                            33 F    0.935
    33   9 F    1.067 --    32 C    0.935
    34   9 F    1.085 --    32 C    0.959
    35   9 F    1.084 --    32 C    0.958
    36   6 C    3.987 --    37 C    1.444    31 C    1.412    64 H    0.963
                            29 C    0.109
    37   6 C    3.987 --    36 C    1.444    28 C    1.398    65 H    0.961
                            30 C    0.108
    38   7 N    3.399 --    25 P    1.254    39 C    0.970    40 C    0.918
    39   6 C    3.958 --    68 H    0.977    66 H    0.971    38 N    0.970
                            67 H    0.960
    40   6 C    3.952 --    41 C    0.999    43 C    0.996    42 C    0.994
                            38 N    0.918
    41   6 C    3.989 --    40 C    0.999    71 H    0.979    70 H    0.977
                            69 H    0.945
    42   6 C    3.987 --    40 C    0.994    72 H    0.982    74 H    0.982
                            73 H    0.977
    43   6 C    3.982 --    40 C    0.996    77 H    0.981    76 H    0.979
                            75 H    0.965
    44   1 H    0.994 --     1 C    0.969
    45   1 H    0.995 --     1 C    0.976
    46   1 H    0.994 --     1 C    0.975
    47   1 H    0.997 --     4 C    0.964
    48   1 H    0.995 --     5 C    0.966
    49   1 H    0.997 --     7 C    0.967
    50   1 H    0.996 --     8 C    0.969
    51   1 H    0.997 --     9 C    0.970
    52   1 H    0.998 --    10 C    0.965
    53   1 H    0.997 --    15 C    0.963
    54   1 H    0.995 --    16 C    0.966
    55   1 H    0.997 --    18 C    0.967
    56   1 H    0.996 --    19 C    0.969
    57   1 H    0.997 --    20 C    0.970
    58   1 H    0.998 --    21 C    0.965
    59   1 H    0.995 --    24 C    0.961
    60   1 H    0.995 --    24 C    0.978
    61   1 H    0.996 --    24 C    0.972
    62   1 H    0.995 --    29 C    0.963
    63   1 H    0.993 --    30 C    0.963
    64   1 H    0.993 --    36 C    0.963
    65   1 H    0.995 --    37 C    0.961
    66   1 H    0.989 --    39 C    0.971
    67   1 H    0.995 --    39 C    0.960
    68   1 H    0.996 --    39 C    0.977
    69   1 H    0.996 --    41 C    0.945
    70   1 H    0.994 --    41 C    0.977
    71   1 H    0.996 --    41 C    0.979
    72   1 H    0.996 --    42 C    0.982
    73   1 H    0.994 --    42 C    0.977
    74   1 H    0.997 --    42 C    0.982
    75   1 H    0.997 --    43 C    0.965
    76   1 H    0.994 --    43 C    0.979
    77   1 H    0.997 --    43 C    0.981
 ---------------------------------------------------------------------------

Topologies differ in total number of bonds
Writing topology from bond orders to xtbtopo.mol

molecular dipole:
                 x           y           z       tot (Debye)
 q only:       -0.474       2.108      -2.165
   full:       -0.423       1.884      -2.043       7.145
molecular quadrupole (traceless):
                xx          xy          yy          xz          yz          zz
 q only:       -2.012      28.545      -2.201     -22.057      -4.124       4.213
  q+dip:       -0.897      26.063       0.265     -25.498      -1.368       0.632
   full:       -1.792      25.964      -3.543     -22.765      -2.954       5.334

           -------------------------------------------------
          |                Geometry Summary                 |
           -------------------------------------------------

      molecular mass/u    :      636.7536620
   center of mass at/Å    :        0.1670676      -0.2495469       0.6144817
  moments of inertia/u·Å² :        0.6347050E+04   0.7447016E+04   0.9478484E+04
rotational constants/cm⁻¹ :        0.2655979E-02   0.2263676E-02   0.1778516E-02

 * 78 selected distances

     #   Z          #   Z                                           value/Å
     1   6 C        2   7 N                                       1.4508696
     2   7 N        3   6 C                                       1.4320794
     3   6 C        4   6 C                                       1.4048400
     4   6 C        5   6 C                                       1.3650118
     5   6 C        6   6 C                                       1.4113786
     6   6 C        7   6 C                                       1.4104724
     7   6 C        8   6 C                                       1.3668228
     8   6 C        9   6 C                                       1.4031749
     9   6 C       10   6 C                                       1.3679426
     6   6 C       11   6 C                                       1.4207874
    10   6 C       11   6 C                                       1.4117394
     3   6 C       12   6 C                                       1.3761960
    11   6 C       12   6 C                                       1.4230312
    13   6 C       14   6 C                                       1.3794460
    14   6 C       15   6 C                                       1.4083230
    15   6 C       16   6 C                                       1.3643078
    16   6 C       17   6 C                                       1.4088501
    17   6 C       18   6 C                                       1.4101970
    18   6 C       19   6 C                                       1.3663442
    19   6 C       20   6 C                                       1.4027820
    20   6 C       21   6 C                                       1.3675414
    13   6 C       22   6 C                                       1.4259749
    17   6 C       22   6 C                                       1.4194408
    21   6 C       22   6 C                                       1.4118931
    14   6 C       23   7 N                                       1.4302306
    23   7 N       24   6 C                                       1.4577279
     2   7 N       25  15 P                                       1.6436546
    23   7 N       25  15 P                                       1.6577498
    25  15 P       26  16 S                                       2.1778537 (max)
    26  16 S       27  16 S                                       2.0349030
    28   6 C       29   6 C                                       1.3869681
    29   6 C       30   6 C                                       1.3822474
    30   6 C       31   6 C                                       1.3893242
    32   6 C       33   9 F                                       1.3503865
    32   6 C       34   9 F                                       1.3355597
    32   6 C       35   9 F                                       1.3362603
    31   6 C       36   6 C                                       1.3893759
    28   6 C       37   6 C                                       1.3877435
    36   6 C       37   6 C                                       1.3824966
    25  15 P       38   7 N                                       1.6548345
    38   7 N       39   6 C                                       1.4620370
    40   6 C       41   6 C                                       1.5265443
    40   6 C       42   6 C                                       1.5300456
    40   6 C       43   6 C                                       1.5286614
     1   6 C       44   1 H                                       1.0875058
     1   6 C       45   1 H                                       1.0911935
     1   6 C       46   1 H                                       1.0909776
     4   6 C       47   1 H                                       1.0796312
     5   6 C       48   1 H                                       1.0788490
     7   6 C       49   1 H                                       1.0794952
     8   6 C       50   1 H                                       1.0788585
     9   6 C       51   1 H                                       1.0793106
    10   6 C       52   1 H                                       1.0798456
    15   6 C       53   1 H                                       1.0783902 (min)
    16   6 C       54   1 H                                       1.0791713
    18   6 C       55   1 H                                       1.0796554
    19   6 C       56   1 H                                       1.0788642
    20   6 C       57   1 H                                       1.0791909
    21   6 C       58   1 H                                       1.0790221
    24   6 C       59   1 H                                       1.0908339
    24   6 C       60   1 H                                       1.0900982
    24   6 C       61   1 H                                       1.0914936
    29   6 C       62   1 H                                       1.0796908
    30   6 C       63   1 H                                       1.0787901
    36   6 C       64   1 H                                       1.0788189
    37   6 C       65   1 H                                       1.0792645
    39   6 C       66   1 H                                       1.0889199
    39   6 C       67   1 H                                       1.0884747
    39   6 C       68   1 H                                       1.0918810
    41   6 C       69   1 H                                       1.0884033
    41   6 C       70   1 H                                       1.0863690
    41   6 C       71   1 H                                       1.0867260
    42   6 C       72   1 H                                       1.0856797
    42   6 C       73   1 H                                       1.0864910
    42   6 C       74   1 H                                       1.0871635
    43   6 C       75   1 H                                       1.0880547
    43   6 C       76   1 H                                       1.0860726
    43   6 C       77   1 H                                       1.0876107

 * 7 distinct bonds (by element types)

   Z      Z             #   av. dist./Å        max./Å        min./Å
   1 H    6 C          34     1.0841411     1.0918810     1.0783902
   6 C    6 C          31     1.4074163     1.5300456     1.3643078
   6 C    7 N           5     1.4465889     1.4620370     1.4302306
   6 C    9 F           3     1.3407355     1.3503865     1.3355597
   7 N   15 P           3     1.6520796     1.6577498     1.6436546
  15 P   16 S           1     2.1778537     2.1778537     2.1778537
  16 S   16 S           1     2.0349030     2.0349030     2.0349030


optimized geometry written to: xtbopt.xyz


           -------------------------------------------------
          | TOTAL ENERGY             -121.876652200951 Eh   |
          | GRADIENT NORM               0.000033529942 Eh/α |
          | HOMO-LUMO GAP               2.241135707933 eV   |
           -------------------------------------------------

------------------------------------------------------------------------
 * finished run on 2024/12/16 at 19:06:15.686     
------------------------------------------------------------------------
 total:
 * wall-time:     0 d,  0 h,  2 min, 16.322 sec
 *  cpu-time:     0 d,  0 h, 17 min, 59.058 sec
 * ratio c/w:     7.916 speedup
 SCF:
 * wall-time:     0 d,  0 h,  0 min,  2.597 sec
 *  cpu-time:     0 d,  0 h,  0 min, 20.641 sec
 * ratio c/w:     7.948 speedup
 ANC optimizer:
 * wall-time:     0 d,  0 h,  2 min, 13.544 sec
 *  cpu-time:     0 d,  0 h, 17 min, 37.029 sec
 * ratio c/w:     7.915 speedup

