      -----------------------------------------------------------      
     |                   =====================                   |     
     |                           x T B                           |     
     |                   =====================                   |     
     |                         S. Grimme                         |     
     |          Mulliken Center for Theoretical Chemistry        |     
     |                    University of Bonn                     |     
      -----------------------------------------------------------      

   * xtb version 6.7.1 (edcfbbe) compiled by 'conda@3ef47c1a292c' on 2024-11-25

   xtb is free software: you can redistribute it and/or modify it under
   the terms of the GNU Lesser General Public License as published by
   the Free Software Foundation, either version 3 of the License, or
   (at your option) any later version.
   
   xtb is distributed in the hope that it will be useful,
   but WITHOUT ANY WARRANTY; without even the implied warranty of
   MERCHANTABILITY or FITNESS FOR A PARTICULAR PURPOSE.  See the
   GNU Lesser General Public License for more details.
   
   Cite this work as:
   * C. Bannwarth, E. Caldeweyher, S. Ehlert, A. Hansen, P. Pracht,
     J. Seibert, S. Spicher, S. Grimme, WIREs Comput. Mol. Sci., 2020, 11,
     e01493. DOI: 10.1002/wcms.1493
   
   for GFN2-xTB:
   * C. Bannwarth, S. Ehlert and S. Grimme., J. Chem. Theory Comput., 2019,
     15, 1652-1671. DOI: 10.1021/acs.jctc.8b01176
   for GFN1-xTB:
   * S. Grimme, C. Bannwarth, P. Shushkov, J. Chem. Theory Comput., 2017,
     13, 1989-2009. DOI: 10.1021/acs.jctc.7b00118
   for GFN0-xTB:
   * P. Pracht, E. Caldeweyher, S. Ehlert, S. Grimme, ChemRxiv, 2019, preprint.
     DOI: 10.26434/chemrxiv.8326202.v1
   for GFN-FF:
   * S. Spicher and S. Grimme, Angew. Chem. Int. Ed., 2020, 59, 15665-15673.
     DOI: 10.1002/anie.202004239
   
   for ALPB and GBSA implicit solvation:
   * S. Ehlert, M. Stahn, S. Spicher, S. Grimme, J. Chem. Theory Comput.,
     2021, 17, 4250-4261. DOI: 10.1021/acs.jctc.1c00471
   
   for ddCOSMO and CPCM-X implicit solvation:
   * M. Stahn, S. Ehlert, S. Grimme, J. Phys. Chem. A,
     2023, XX, XXXX-XXXX. DOI: 10.1021/acs.jpca.3c04382
   
   for DFT-D4:
   * E. Caldeweyher, C. Bannwarth and S. Grimme, J. Chem. Phys., 2017,
     147, 034112. DOI: 10.1063/1.4993215
   * E. Caldeweyher, S. Ehlert, A. Hansen, H. Neugebauer, S. Spicher,
     C. Bannwarth and S. Grimme, J. Chem. Phys., 2019, 150, 154122.
     DOI: 10.1063/1.5090222
   * E. Caldeweyher, J.-M. Mewes, S. Ehlert and S. Grimme, Phys. Chem. Chem. Phys.
     2020, 22, 8499-8512. DOI: 10.1039/D0CP00502A
   
   for sTDA-xTB:
   * S. Grimme and C. Bannwarth, J. Chem. Phys., 2016, 145, 054103.
     DOI: 10.1063/1.4959605
   
   in the mass-spec context:
   * V. Asgeirsson, C. Bauer and S. Grimme, Chem. Sci., 2017, 8, 4879.
     DOI: 10.1039/c7sc00601b
   * J. Koopman and S. Grimme, ACS Omega 2019, 4, 12, 15120-15133.
     DOI: 10.1021/acsomega.9b02011
   
   for metadynamics refer to:
   * S. Grimme, J. Chem. Theory Comput., 2019, 155, 2847-2862
     DOI: 10.1021/acs.jctc.9b00143
   
   for SPH calculations refer to:
   * S. Spicher and S. Grimme, J. Chem. Theory Comput., 2021, 17, 1701-1714
     DOI: 10.1021/acs.jctc.0c01306
   
   for ONIOM refer to:
   * C. Plett, A. Katbashev, S. Ehlert, S. Grimme, M. Bursch,
     Phys. Chem. Chem. Phys., 2023, 25, 17860-17868. DOI: 10.1039/D3CP02178E
   
   for DIPRO refer to:
   * J. Kohn, N. Gildemeister, S. Grimme, D. Fazzi, A. Hansen,
     J. Chem. Phys., 2023, just accepted.
   
   for PTB refer to:
   * S. Grimme, M. Mueller, A. Hansen, J. Chem. Phys., 2023, 158, 124111.
     DOI: 10.1063/5.0137838
   
   with help from (in alphabetical order)
   P. Atkinson, C. Bannwarth, F. Bohle, G. Brandenburg, E. Caldeweyher
   M. Checinski, S. Dohm, S. Ehlert, S. Ehrlich, I. Gerasimov, C. Hölzer
   A. Katbashev, J. Kohn, J. Koopman, C. Lavigne, S. Lehtola, F. März, M. Müller,
   F. Musil, H. Neugebauer, J. Pisarek, C. Plett, P. Pracht, F. Pultar,
   J. Seibert, P. Shushkov, S. Spicher, M. Stahn, M. Steiner, T. Strunk,
   J. Stückrath, T. Rose, and J. Unsleber
   
 * started run on 2024/12/16 at 21:08:01.218     
   ID    Z sym.   atoms
    1    6 C      1-7, 12-17, 19-35, 37
    2   16 S      8, 9
    3   15 P      10
    4    7 N      11
    5    8 O      18, 36
    6    1 H      38-74

           -------------------------------------------------
          |                Calculation Setup                |
           -------------------------------------------------

          program call               : xtb --gfn2 --opt extreme -P 8 --charge 1 molecule.xyz
          hostname                   : node20
          coordinate file            : molecule.xyz
          omp threads                :                     8


           -------------------------------------------------
          |                 G F N 2 - x T B                 |
           -------------------------------------------------

        Reference                      10.1021/acs.jctc.8b01176
      * Hamiltonian:
        H0-scaling (s, p, d)           1.850000    2.230000    2.230000
        zeta-weighting                 0.500000
      * Dispersion:
        s8                             2.700000
        a1                             0.520000
        a2                             5.000000
        s9                             5.000000
      * Repulsion:
        kExp                           1.500000    1.000000
        rExp                           1.000000
      * Coulomb:
        alpha                          2.000000
        third order                    shell-resolved
        anisotropic                    true
        a3                             3.000000
        a5                             4.000000
        cn-shift                       1.200000
        cn-exp                         4.000000
        max-rad                        5.000000


          ...................................................
          :                      SETUP                      :
          :.................................................:
          :  # basis functions                 203          :
          :  # atomic orbitals                 200          :
          :  # shells                          114          :
          :  # electrons                       194          :
          :  max. iterations                   250          :
          :  Hamiltonian                  GFN2-xTB          :
          :  restarted?                      false          :
          :  GBSA solvation                  false          :
          :  PC potential                    false          :
          :  electronic temp.          300.0000000     K    :
          :  accuracy                    1.0000000          :
          :  -> integral cutoff          0.2500000E+02      :
          :  -> integral neglect         0.1000000E-07      :
          :  -> SCF convergence          0.1000000E-05 Eh   :
          :  -> wf. convergence          0.1000000E-03 e    :
          :  Broyden damping             0.4000000          :
          :  net charge                          1          :
          :  unpaired electrons                  0          :
          ...................................................

 iter      E             dE          RMSdq      gap      omega  full diag
   1   -106.4361085 -0.106436E+03  0.437E+00    2.64       0.0  T
   2   -106.5753470 -0.139239E+00  0.258E+00    2.76       1.0  T
   3   -106.5838419 -0.849484E-02  0.115E+00    2.55       1.0  T
   4   -106.5989787 -0.151368E-01  0.469E-01    2.46       1.0  T
   5   -106.6022280 -0.324925E-02  0.209E-01    2.49       1.0  T
   6   -106.6031549 -0.926917E-03  0.764E-02    2.51       1.0  T
   7   -106.6031954 -0.405183E-04  0.311E-02    2.51       1.0  T
   8   -106.6032138 -0.183772E-04  0.158E-02    2.51       1.0  T
   9   -106.6032186 -0.487196E-05  0.785E-03    2.51       1.5  T
  10   -106.6032195 -0.900647E-06  0.287E-03    2.51       4.1  T
  11   -106.6032197 -0.118300E-06  0.152E-03    2.51       7.6  T
  12   -106.6032197 -0.235857E-07  0.811E-04    2.51      14.3  T
  13   -106.6032197 -0.101740E-07  0.401E-04    2.51      29.0  T

   *** convergence criteria satisfied after 13 iterations ***

         #    Occupation            Energy/Eh            Energy/eV
      -------------------------------------------------------------
         1        2.0000           -0.8784741             -23.9045
       ...           ...                  ...                  ...
        91        2.0000           -0.5101982             -13.8832
        92        2.0000           -0.5047543             -13.7351
        93        2.0000           -0.5034014             -13.6982
        94        2.0000           -0.4989341             -13.5767
        95        2.0000           -0.4914134             -13.3720
        96        2.0000           -0.4882536             -13.2861
        97        2.0000           -0.4856628             -13.2156 (HOMO)
        98                         -0.3935102             -10.7080 (LUMO)
        99                         -0.3618498              -9.8464
       100                         -0.3408219              -9.2742
       101                         -0.3375131              -9.1842
       102                         -0.3330610              -9.0631
       ...                                ...                  ...
       200                          1.0163460              27.6562
      -------------------------------------------------------------
                  HL-Gap            0.0921527 Eh            2.5076 eV
             Fermi-level           -0.4395865 Eh          -11.9618 eV

 SCC (total)                   0 d,  0 h,  0 min,  2.013 sec
 SCC setup                      ...        0 min,  0.000 sec (  0.017%)
 Dispersion                     ...        0 min,  0.006 sec (  0.296%)
 classical contributions        ...        0 min,  0.000 sec (  0.005%)
 integral evaluation            ...        0 min,  0.007 sec (  0.371%)
 iterations                     ...        0 min,  1.881 sec ( 93.471%)
 molecular gradient             ...        0 min,  0.113 sec (  5.600%)
 printout                       ...        0 min,  0.005 sec (  0.238%)

         :::::::::::::::::::::::::::::::::::::::::::::::::::::
         ::                     SUMMARY                     ::
         :::::::::::::::::::::::::::::::::::::::::::::::::::::
         :: total energy            -105.112667017591 Eh    ::
         :: gradient norm              0.111428848711 Eh/a0 ::
         :: HOMO-LUMO gap              2.507601547144 eV    ::
         ::.................................................::
         :: SCC energy              -106.597961784283 Eh    ::
         :: -> isotropic ES            0.104010209400 Eh    ::
         :: -> anisotropic ES         -0.000420075395 Eh    ::
         :: -> anisotropic XC          0.056365107028 Eh    ::
         :: -> dispersion             -0.105978536436 Eh    ::
         :: repulsion energy           1.485294766691 Eh    ::
         :: add. restraining           0.000000000000 Eh    ::
         :: total charge               1.000000000000 e     ::
         :::::::::::::::::::::::::::::::::::::::::::::::::::::

      ----------------------------------------------------------- 
     |                   =====================                   |
     |                        A N C O P T                        |
     |                   =====================                   |
     |               Approximate Normal Coordinate               |
     |                Rational Function Optimizer                |
      ----------------------------------------------------------- 
      ----------------------------------------------------------- 
     |                   =====================                   |
     |                        A N C O P T                        |
     |                   =====================                   |
     |               Approximate Normal Coordinate               |
     |                Rational Function Optimizer                |
      ----------------------------------------------------------- 

          ...................................................
          :                      SETUP                      :
          :.................................................:
          :   optimization level           extreme          :
          :   max. optcycles                  1480          :
          :   ANC micro-cycles                  20          :
          :   degrees of freedom               216          :
          :.................................................:
          :   RF solver                   davidson          :
          :   write xtbopt.log                true          :
          :   linear?                        false          :
          :   energy convergence         0.5000000E-07 Eh   :
          :   grad. convergence          0.5000000E-04 Eh/α :
          :   maxmium RF displ.          1.0000000          :
          :   Hlow (freq-cutoff)         0.1000000E-01      :
          :   Hmax (freq-cutoff)         5.0000000          :
          :   S6 in model hess.         20.0000000          :
          ...................................................

generating ANC from exact Hessian ...
Using Lindh-Hessian (1995)
 Shifting diagonal of input Hessian by    9.9237877766177665E-003
 Lowest  eigenvalues of input Hessian
    0.000000    0.000000    0.000000    0.000000    0.000000    0.000000
    0.010000    0.010096    0.010163    0.010324    0.010373    0.010420
    0.010534    0.011249    0.011510    0.011713    0.011842    0.012170
 Highest eigenvalues
    1.909724    1.910889    2.001929    2.019895    2.113187    2.127416


........................................................................
.............................. CYCLE    1 ..............................
........................................................................

 iter      E             dE          RMSdq      gap      omega  full diag
   1   -106.6032197 -0.106603E+03  0.216E-04    2.51       0.0  T
   2   -106.6032197 -0.523087E-09  0.153E-04    2.51      75.9  T
   3   -106.6032197 -0.535920E-09  0.113E-04    2.51     102.6  T
     SCC iter.                  ...        0 min,  0.331 sec
     gradient                   ...        0 min,  0.113 sec
 * total energy  :  -105.1126670 Eh     change       -0.1831367E-08 Eh
   gradient norm :     0.1114310 Eh/α   predicted     0.0000000E+00 (-100.00%)
   displ. norm   :     0.4004597 α      lambda       -0.2170425E-01
   maximum displ.:     0.1254950 α      in ANC's #22, #42, #79, ...

........................................................................
.............................. CYCLE    2 ..............................
........................................................................

 iter      E             dE          RMSdq      gap      omega  full diag
   1   -106.6615888 -0.106662E+03  0.289E-01    2.65       0.0  T
   2   -106.6619598 -0.371012E-03  0.163E-01    2.68       1.0  T
   3   -106.6618640  0.957718E-04  0.751E-02    2.68       1.0  T
   4   -106.6620772 -0.213205E-03  0.284E-02    2.69       1.0  T
   5   -106.6620958 -0.185795E-04  0.118E-02    2.69       1.0  T
   6   -106.6620973 -0.150636E-05  0.574E-03    2.69       2.0  T
   7   -106.6620982 -0.886660E-06  0.319E-03    2.69       3.6  T
   8   -106.6620983 -0.141544E-06  0.193E-03    2.69       6.0  T
   9   -106.6620984 -0.240882E-07  0.923E-04    2.69      12.6  T
  10   -106.6620984 -0.149421E-07  0.450E-04    2.69      25.8  T
     SCC iter.                  ...        0 min,  1.558 sec
     gradient                   ...        0 min,  0.111 sec
 * total energy  :  -105.1270174 Eh     change       -0.1435043E-01 Eh
   gradient norm :     0.0562472 Eh/α   predicted    -0.1260995E-01 ( -12.13%)
   displ. norm   :     0.3526104 α      lambda       -0.7196427E-02
   maximum displ.:     0.0963238 α      in ANC's #37, #35, #17, ...

........................................................................
.............................. CYCLE    3 ..............................
........................................................................

 iter      E             dE          RMSdq      gap      omega  full diag
   1   -106.6972671 -0.106697E+03  0.152E-01    2.76       0.0  T
   2   -106.6973652 -0.981071E-04  0.841E-02    2.76       1.0  T
   3   -106.6973360  0.291586E-04  0.430E-02    2.76       1.0  T
   4   -106.6974097 -0.736220E-04  0.145E-02    2.76       1.0  T
   5   -106.6974119 -0.229577E-05  0.525E-03    2.76       2.2  T
   6   -106.6974124 -0.465768E-06  0.269E-03    2.76       4.3  T
   7   -106.6974126 -0.192311E-06  0.134E-03    2.76       8.7  T
   8   -106.6974126 -0.269439E-07  0.726E-04    2.76      16.0  T
   9   -106.6974126 -0.633743E-08  0.339E-04    2.76      34.3  T
     SCC iter.                  ...        0 min,  1.174 sec
     gradient                   ...        0 min,  0.117 sec
 * total energy  :  -105.1312425 Eh     change       -0.4225061E-02 Eh
   gradient norm :     0.0271875 Eh/α   predicted    -0.4045609E-02 (  -4.25%)
   displ. norm   :     0.3126610 α      lambda       -0.2402968E-02
   maximum displ.:     0.1209190 α      in ANC's #21, #17, #15, ...

........................................................................
.............................. CYCLE    4 ..............................
........................................................................

 iter      E             dE          RMSdq      gap      omega  full diag
   1   -106.7014819 -0.106701E+03  0.118E-01    2.78       0.0  T
   2   -106.7015157 -0.337454E-04  0.683E-02    2.78       1.0  T
   3   -106.7015080  0.769287E-05  0.218E-02    2.79       1.0  T
   4   -106.7015189 -0.109031E-04  0.937E-03    2.79       1.2  T
   5   -106.7015223 -0.345474E-05  0.459E-03    2.79       2.5  T
   6   -106.7015224 -0.887431E-07  0.248E-03    2.79       4.7  T
   7   -106.7015225 -0.571009E-07  0.145E-03    2.79       8.0  T
   8   -106.7015225 -0.126218E-07  0.704E-04    2.79      16.5  T
   9   -106.7015225 -0.862978E-08  0.323E-04    2.79      36.0  T
     SCC iter.                  ...        0 min,  1.325 sec
     gradient                   ...        0 min,  0.117 sec
 * total energy  :  -105.1327084 Eh     change       -0.1465847E-02 Eh
   gradient norm :     0.0135961 Eh/α   predicted    -0.1318939E-02 ( -10.02%)
   displ. norm   :     0.3096284 α      lambda       -0.1216295E-02
   maximum displ.:     0.1190048 α      in ANC's #15, #13, #21, ...

........................................................................
.............................. CYCLE    5 ..............................
........................................................................

 iter      E             dE          RMSdq      gap      omega  full diag
   1   -106.6993221 -0.106699E+03  0.819E-02    2.78       0.0  T
   2   -106.6993365 -0.143818E-04  0.430E-02    2.78       1.0  T
   3   -106.6993356  0.857727E-06  0.127E-02    2.78       1.0  T
   4   -106.6993360 -0.423354E-06  0.808E-03    2.77       1.4  T
   5   -106.6993391 -0.302593E-05  0.243E-03    2.77       4.8  T
   6   -106.6993392 -0.114870E-06  0.971E-04    2.77      12.0  T
   7   -106.6993392 -0.156335E-07  0.526E-04    2.77      22.1  T
     SCC iter.                  ...        0 min,  0.972 sec
     gradient                   ...        0 min,  0.121 sec
 * total energy  :  -105.1335240 Eh     change       -0.8156469E-03 Eh
   gradient norm :     0.0077903 Eh/α   predicted    -0.6664628E-03 ( -18.29%)
   displ. norm   :     0.2816856 α      lambda       -0.5640623E-03
   maximum displ.:     0.1244045 α      in ANC's #15, #13, #7, ...

........................................................................
.............................. CYCLE    6 ..............................
........................................................................

 iter      E             dE          RMSdq      gap      omega  full diag
   1   -106.6970119 -0.106697E+03  0.566E-02    2.77       0.0  T
   2   -106.6970181 -0.620279E-05  0.309E-02    2.77       1.0  T
   3   -106.6970157  0.243651E-05  0.996E-03    2.77       1.2  T
   4   -106.6970189 -0.322632E-05  0.534E-03    2.77       2.2  T
   5   -106.6970198 -0.897514E-06  0.139E-03    2.77       8.4  T
   6   -106.6970199 -0.529305E-07  0.669E-04    2.77      17.4  T
   7   -106.6970199 -0.158660E-07  0.329E-04    2.77      35.3  T
     SCC iter.                  ...        0 min,  0.962 sec
     gradient                   ...        0 min,  0.117 sec
 * total energy  :  -105.1339280 Eh     change       -0.4039576E-03 Eh
   gradient norm :     0.0078664 Eh/α   predicted    -0.3044099E-03 ( -24.64%)
   displ. norm   :     0.2949620 α      lambda       -0.3871591E-03
   maximum displ.:     0.1315150 α      in ANC's #15, #13, #7, ...

........................................................................
.............................. CYCLE    7 ..............................
........................................................................

 iter      E             dE          RMSdq      gap      omega  full diag
   1   -106.6962313 -0.106696E+03  0.488E-02    2.76       0.0  T
   2   -106.6962348 -0.359368E-05  0.271E-02    2.76       1.0  T
   3   -106.6962324  0.243258E-05  0.871E-03    2.76       1.3  T
   4   -106.6962356 -0.318452E-05  0.377E-03    2.76       3.1  T
   5   -106.6962359 -0.338389E-06  0.101E-03    2.76      11.5  T
   6   -106.6962360 -0.220262E-07  0.442E-04    2.76      26.3  T
   7   -106.6962360 -0.460160E-08  0.254E-04    2.76      45.8  T
     SCC iter.                  ...        0 min,  0.939 sec
     gradient                   ...        0 min,  0.113 sec
 * total energy  :  -105.1342099 Eh     change       -0.2819537E-03 Eh
   gradient norm :     0.0070691 Eh/α   predicted    -0.2104218E-03 ( -25.37%)
   displ. norm   :     0.2783732 α      lambda       -0.2695793E-03
   maximum displ.:     0.1158047 α      in ANC's #7, #15, #13, ...

........................................................................
.............................. CYCLE    8 ..............................
........................................................................

 iter      E             dE          RMSdq      gap      omega  full diag
   1   -106.6970519 -0.106697E+03  0.503E-02    2.75       0.0  T
   2   -106.6970554 -0.349238E-05  0.257E-02    2.75       1.0  T
   3   -106.6970543  0.106118E-05  0.751E-03    2.75       1.5  T
   4   -106.6970557 -0.140733E-05  0.397E-03    2.75       2.9  T
   5   -106.6970562 -0.426654E-06  0.935E-04    2.75      12.4  T
   6   -106.6970562 -0.210142E-07  0.368E-04    2.75      31.6  T
     SCC iter.                  ...        0 min,  0.706 sec
     gradient                   ...        0 min,  0.113 sec
 * total energy  :  -105.1344013 Eh     change       -0.1914219E-03 Eh
   gradient norm :     0.0046306 Eh/α   predicted    -0.1452350E-03 ( -24.13%)
   displ. norm   :     0.2089919 α      lambda       -0.1464938E-03
   maximum displ.:     0.0918157 α      in ANC's #7, #6, #13, ...

........................................................................
.............................. CYCLE    9 ..............................
........................................................................

 iter      E             dE          RMSdq      gap      omega  full diag
   1   -106.6984664 -0.106698E+03  0.410E-02    2.75       0.0  T
   2   -106.6984689 -0.250289E-05  0.207E-02    2.75       1.0  T
   3   -106.6984684  0.454010E-06  0.606E-03    2.75       1.9  T
   4   -106.6984690 -0.620423E-06  0.317E-03    2.75       3.7  T
   5   -106.6984693 -0.294468E-06  0.940E-04    2.75      12.4  T
   6   -106.6984694 -0.354164E-07  0.308E-04    2.75      37.7  T
     SCC iter.                  ...        0 min,  0.876 sec
     gradient                   ...        0 min,  0.112 sec
 * total energy  :  -105.1345024 Eh     change       -0.1010416E-03 Eh
   gradient norm :     0.0026321 Eh/α   predicted    -0.7647112E-04 ( -24.32%)
   displ. norm   :     0.1407551 α      lambda       -0.7054985E-04
   maximum displ.:     0.0609419 α      in ANC's #7, #4, #6, ...

........................................................................
.............................. CYCLE   10 ..............................
........................................................................

 iter      E             dE          RMSdq      gap      omega  full diag
   1   -106.6994977 -0.106699E+03  0.291E-02    2.75       0.0  T
   2   -106.6994989 -0.118807E-05  0.145E-02    2.75       1.0  T
   3   -106.6994988  0.106081E-06  0.418E-03    2.75       2.8  T
   4   -106.6994990 -0.175272E-06  0.223E-03    2.75       5.2  T
   5   -106.6994991 -0.137398E-06  0.575E-04    2.75      20.2  T
   6   -106.6994991 -0.109773E-07  0.187E-04    2.75      62.2  T
     SCC iter.                  ...        0 min,  0.808 sec
     gradient                   ...        0 min,  0.118 sec
 * total energy  :  -105.1345533 Eh     change       -0.5091507E-04 Eh
   gradient norm :     0.0022452 Eh/α   predicted    -0.3597999E-04 ( -29.33%)
   displ. norm   :     0.1296180 α      lambda       -0.5149823E-04
   maximum displ.:     0.0606859 α      in ANC's #4, #7, #5, ...

........................................................................
.............................. CYCLE   11 ..............................
........................................................................

 iter      E             dE          RMSdq      gap      omega  full diag
   1   -106.6999707 -0.106700E+03  0.236E-02    2.75       0.0  T
   2   -106.6999714 -0.654425E-06  0.122E-02    2.75       1.0  T
   3   -106.6999713  0.126043E-06  0.344E-03    2.75       3.4  T
   4   -106.6999715 -0.177011E-06  0.177E-03    2.75       6.6  T
   5   -106.6999715 -0.818037E-07  0.421E-04    2.75      27.6  T
   6   -106.6999715 -0.435232E-08  0.155E-04    2.75      74.9  T
     SCC iter.                  ...        0 min,  0.748 sec
     gradient                   ...        0 min,  0.115 sec
 * total energy  :  -105.1345914 Eh     change       -0.3811639E-04 Eh
   gradient norm :     0.0022848 Eh/α   predicted    -0.2618544E-04 ( -31.30%)
   displ. norm   :     0.1304445 α      lambda       -0.4286765E-04
   maximum displ.:     0.0648957 α      in ANC's #4, #5, #7, ...

........................................................................
.............................. CYCLE   12 ..............................
........................................................................

 iter      E             dE          RMSdq      gap      omega  full diag
   1   -106.6999748 -0.106700E+03  0.222E-02    2.75       0.0  T
   2   -106.6999752 -0.477339E-06  0.115E-02    2.74       1.0  T
   3   -106.6999751  0.975638E-07  0.302E-03    2.74       3.8  T
   4   -106.6999753 -0.103158E-06  0.163E-03    2.74       7.1  T
   5   -106.6999753 -0.952852E-07  0.370E-04    2.74      31.4  T
   6   -106.6999753 -0.250296E-08  0.196E-04    2.74      59.2  T
     SCC iter.                  ...        0 min,  0.682 sec
     gradient                   ...        0 min,  0.115 sec
 * total energy  :  -105.1346235 Eh     change       -0.3210980E-04 Eh
   gradient norm :     0.0020444 Eh/α   predicted    -0.2180186E-04 ( -32.10%)
   displ. norm   :     0.1260132 α      lambda       -0.3523730E-04
   maximum displ.:     0.0654826 α      in ANC's #4, #5, #15, ...

........................................................................
.............................. CYCLE   13 ..............................
........................................................................

 iter      E             dE          RMSdq      gap      omega  full diag
   1   -106.6997300 -0.106700E+03  0.202E-02    2.74       0.0  T
   2   -106.6997303 -0.317477E-06  0.107E-02    2.74       1.1  T
   3   -106.6997302  0.829625E-07  0.259E-03    2.74       4.5  T
   4   -106.6997303 -0.649716E-07  0.133E-03    2.74       8.8  T
   5   -106.6997304 -0.916772E-07  0.382E-04    2.74      30.4  T
   6   -106.6997304 -0.214115E-08  0.222E-04    2.74      52.3  T
     SCC iter.                  ...        0 min,  0.673 sec
     gradient                   ...        0 min,  0.117 sec
 * total energy  :  -105.1346498 Eh     change       -0.2629221E-04 Eh
   gradient norm :     0.0016246 Eh/α   predicted    -0.1790134E-04 ( -31.91%)
   displ. norm   :     0.1686657 α      lambda       -0.2627521E-04
   maximum displ.:     0.0909333 α      in ANC's #4, #5, #15, ...

........................................................................
.............................. CYCLE   14 ..............................
........................................................................

 iter      E             dE          RMSdq      gap      omega  full diag
   1   -106.6993940 -0.106699E+03  0.261E-02    2.74       0.0  T
   2   -106.6993945 -0.529712E-06  0.140E-02    2.74       1.0  T
   3   -106.6993944  0.150773E-06  0.327E-03    2.74       3.6  T
   4   -106.6993945 -0.135804E-06  0.159E-03    2.74       7.3  T
   5   -106.6993946 -0.140309E-06  0.506E-04    2.74      23.0  T
   6   -106.6993947 -0.455420E-08  0.273E-04    2.74      42.5  T
     SCC iter.                  ...        0 min,  0.754 sec
     gradient                   ...        0 min,  0.113 sec
 * total energy  :  -105.1346744 Eh     change       -0.2460378E-04 Eh
   gradient norm :     0.0015478 Eh/α   predicted    -0.1330850E-04 ( -45.91%)
   displ. norm   :     0.0804706 α      lambda       -0.1259227E-04
   maximum displ.:     0.0441619 α      in ANC's #5, #4, #2, ...

........................................................................
.............................. CYCLE   15 ..............................
........................................................................

 iter      E             dE          RMSdq      gap      omega  full diag
   1   -106.6996173 -0.106700E+03  0.105E-02    2.74       0.0  T
   2   -106.6996174 -0.913818E-07  0.613E-03    2.74       1.9  T
   3   -106.6996173  0.135030E-06  0.165E-03    2.74       7.0  T
   4   -106.6996175 -0.161953E-06  0.480E-04    2.74      24.2  T
   5   -106.6996175 -0.372222E-08  0.220E-04    2.74      52.9  T
     SCC iter.                  ...        0 min,  0.578 sec
     gradient                   ...        0 min,  0.117 sec
 * total energy  :  -105.1346899 Eh     change       -0.1546259E-04 Eh
   gradient norm :     0.0011562 Eh/α   predicted    -0.6315224E-05 ( -59.16%)
   displ. norm   :     0.1472463 α      lambda       -0.2071352E-04
   maximum displ.:     0.0776712 α      in ANC's #4, #5, #2, ...

........................................................................
.............................. CYCLE   16 ..............................
........................................................................

 iter      E             dE          RMSdq      gap      omega  full diag
   1   -106.6998014 -0.106700E+03  0.184E-02    2.74       0.0  T
   2   -106.6998016 -0.186112E-06  0.107E-02    2.74       1.1  T
   3   -106.6998013  0.315727E-06  0.237E-03    2.74       4.9  T
   4   -106.6998016 -0.376177E-06  0.701E-04    2.74      16.6  T
   5   -106.6998016 -0.831643E-08  0.253E-04    2.74      45.9  T
     SCC iter.                  ...        0 min,  0.639 sec
     gradient                   ...        0 min,  0.113 sec
 * total energy  :  -105.1347127 Eh     change       -0.2283300E-04 Eh
   gradient norm :     0.0011310 Eh/α   predicted    -0.1046108E-04 ( -54.18%)
   displ. norm   :     0.1806894 α      lambda       -0.1821800E-04
   maximum displ.:     0.0966826 α      in ANC's #4, #5, #2, ...

........................................................................
.............................. CYCLE   17 ..............................
........................................................................

 iter      E             dE          RMSdq      gap      omega  full diag
   1   -106.7000129 -0.106700E+03  0.221E-02    2.74       0.0  T
   2   -106.7000133 -0.352635E-06  0.122E-02    2.74       1.0  T
   3   -106.7000130  0.229889E-06  0.291E-03    2.74       4.0  T
   4   -106.7000133 -0.275807E-06  0.127E-03    2.74       9.2  T
   5   -106.7000134 -0.506971E-07  0.377E-04    2.74      30.8  T
   6   -106.7000134 -0.591199E-08  0.111E-04    2.74     105.0  T
     SCC iter.                  ...        0 min,  0.725 sec
     gradient                   ...        0 min,  0.114 sec
 * total energy  :  -105.1347331 Eh     change       -0.2041918E-04 Eh
   gradient norm :     0.0013846 Eh/α   predicted    -0.9242016E-05 ( -54.74%)
   displ. norm   :     0.2429893 α      lambda       -0.2156395E-04
   maximum displ.:     0.1317098 α      in ANC's #4, #5, #2, ...

........................................................................
.............................. CYCLE   18 ..............................
........................................................................

 iter      E             dE          RMSdq      gap      omega  full diag
   1   -106.6997919 -0.106700E+03  0.250E-02    2.74       0.0  T
   2   -106.6997922 -0.308383E-06  0.143E-02    2.74       1.0  T
   3   -106.6997919  0.291492E-06  0.272E-03    2.74       4.3  T
   4   -106.6997922 -0.325608E-06  0.115E-03    2.74      10.1  T
   5   -106.6997923 -0.629933E-07  0.350E-04    2.74      33.2  T
   6   -106.6997923 -0.839336E-09  0.120E-04    2.74      97.2  T
     SCC iter.                  ...        0 min,  0.924 sec
     gradient                   ...        0 min,  0.112 sec
 * total energy  :  -105.1347569 Eh     change       -0.2379103E-04 Eh
   gradient norm :     0.0015851 Eh/α   predicted    -0.1106580E-04 ( -53.49%)
   displ. norm   :     0.2512502 α      lambda       -0.2290595E-04
   maximum displ.:     0.1338805 α      in ANC's #4, #5, #2, ...

........................................................................
.............................. CYCLE   19 ..............................
........................................................................

 iter      E             dE          RMSdq      gap      omega  full diag
   1   -106.6999089 -0.106700E+03  0.266E-02    2.74       0.0  T
   2   -106.6999093 -0.441099E-06  0.149E-02    2.74       1.0  T
   3   -106.6999091  0.191393E-06  0.305E-03    2.74       3.8  T
   4   -106.6999094 -0.207145E-06  0.148E-03    2.74       7.8  T
   5   -106.6999094 -0.949701E-07  0.422E-04    2.74      27.5  T
   6   -106.6999095 -0.620663E-08  0.132E-04    2.74      88.0  T
     SCC iter.                  ...        0 min,  0.754 sec
     gradient                   ...        0 min,  0.118 sec
 * total energy  :  -105.1347822 Eh     change       -0.2524270E-04 Eh
   gradient norm :     0.0013389 Eh/α   predicted    -0.1177549E-04 ( -53.35%)
   displ. norm   :     0.2121690 α      lambda       -0.1916698E-04
   maximum displ.:     0.1118818 α      in ANC's #4, #2, #5, ...

........................................................................
.............................. CYCLE   20 ..............................
........................................................................

 iter      E             dE          RMSdq      gap      omega  full diag
   1   -106.6996855 -0.106700E+03  0.214E-02    2.74       0.0  T
   2   -106.6996858 -0.274490E-06  0.123E-02    2.74       1.0  T
   3   -106.6996857  0.842745E-07  0.218E-03    2.74       5.3  T
   4   -106.6996858 -0.975387E-07  0.104E-03    2.74      11.1  T
   5   -106.6996858 -0.431179E-07  0.389E-04    2.74      29.9  T
   6   -106.6996858 -0.560949E-08  0.136E-04    2.74      85.2  T
     SCC iter.                  ...        0 min,  0.877 sec
     gradient                   ...        0 min,  0.117 sec
 * total energy  :  -105.1348027 Eh     change       -0.2051387E-04 Eh
   gradient norm :     0.0011744 Eh/α   predicted    -0.9779168E-05 ( -52.33%)
   displ. norm   :     0.1680366 α      lambda       -0.1635361E-04
   maximum displ.:     0.0832255 α      in ANC's #2, #4, #28, ...
 * RMSD in coord.:     0.3290583 α      energy gain  -0.2213566E-01 Eh

generating ANC from exact Hessian ...
Using Lindh-Hessian (1995)
 Shifting diagonal of input Hessian by    9.9127184614597446E-003
 Lowest  eigenvalues of input Hessian
    0.000000    0.000000    0.000000    0.000000    0.000000    0.000000
    0.010000    0.010117    0.010180    0.010396    0.010413    0.010495
    0.010581    0.011369    0.011637    0.011725    0.012143    0.012352
 Highest eigenvalues
    1.998956    2.017073    2.038512    2.048332    2.120894    2.275284


........................................................................
.............................. CYCLE   21 ..............................
........................................................................

 iter      E             dE          RMSdq      gap      omega  full diag
   1   -106.7001657 -0.106700E+03  0.188E-02    2.74       0.0  T
   2   -106.7001660 -0.308681E-06  0.109E-02    2.73       1.1  T
   3   -106.7001659  0.712704E-07  0.220E-03    2.73       5.3  T
   4   -106.7001660 -0.103296E-06  0.880E-04    2.73      13.2  T
   5   -106.7001660 -0.143137E-07  0.389E-04    2.73      29.9  T
     SCC iter.                  ...        0 min,  0.593 sec
     gradient                   ...        0 min,  0.113 sec
 * total energy  :  -105.1348175 Eh     change       -0.1483311E-04 Eh
   gradient norm :     0.0012731 Eh/α   predicted     0.0000000E+00 (-100.00%)
   displ. norm   :     0.0327386 α      lambda       -0.9628343E-05
   maximum displ.:     0.0126800 α      in ANC's #6, #7, #22, ...

........................................................................
.............................. CYCLE   22 ..............................
........................................................................

 iter      E             dE          RMSdq      gap      omega  full diag
   1   -106.7000099 -0.106700E+03  0.109E-02    2.73       0.0  T
   2   -106.7000101 -0.255104E-06  0.513E-03    2.74       2.3  T
   3   -106.7000101 -0.698314E-08  0.149E-03    2.74       7.8  T
   4   -106.7000102 -0.203636E-07  0.774E-04    2.74      15.0  T
   5   -106.7000102 -0.477959E-08  0.340E-04    2.74      34.2  T
     SCC iter.                  ...        0 min,  0.548 sec
     gradient                   ...        0 min,  0.115 sec
 * total energy  :  -105.1348272 Eh     change       -0.9690724E-05 Eh
   gradient norm :     0.0006193 Eh/α   predicted    -0.4830058E-05 ( -50.16%)
   displ. norm   :     0.0821917 α      lambda       -0.1481711E-04
   maximum displ.:     0.0333830 α      in ANC's #6, #2, #8, ...

........................................................................
.............................. CYCLE   23 ..............................
........................................................................

 iter      E             dE          RMSdq      gap      omega  full diag
   1   -106.6996598 -0.106700E+03  0.155E-02    2.74       0.0  T
   2   -106.6996601 -0.286236E-06  0.855E-03    2.73       1.4  T
   3   -106.6996600  0.959458E-07  0.228E-03    2.73       5.1  T
   4   -106.6996601 -0.101512E-06  0.115E-03    2.73      10.1  T
   5   -106.6996601 -0.519142E-07  0.399E-04    2.73      29.2  T
   6   -106.6996601 -0.497674E-08  0.170E-04    2.73      68.3  T
     SCC iter.                  ...        0 min,  0.717 sec
     gradient                   ...        0 min,  0.119 sec
 * total energy  :  -105.1348396 Eh     change       -0.1243385E-04 Eh
   gradient norm :     0.0016272 Eh/α   predicted    -0.7442067E-05 ( -40.15%)
   displ. norm   :     0.1184860 α      lambda       -0.1738982E-04
   maximum displ.:     0.0486954 α      in ANC's #6, #2, #7, ...

........................................................................
.............................. CYCLE   24 ..............................
........................................................................

 iter      E             dE          RMSdq      gap      omega  full diag
   1   -106.6994478 -0.106699E+03  0.205E-02    2.73       0.0  T
   2   -106.6994483 -0.452084E-06  0.116E-02    2.74       1.0  T
   3   -106.6994481  0.204225E-06  0.282E-03    2.74       4.1  T
   4   -106.6994483 -0.194294E-06  0.142E-03    2.74       8.2  T
   5   -106.6994484 -0.100210E-06  0.479E-04    2.74      24.3  T
   6   -106.6994484 -0.330033E-08  0.196E-04    2.74      59.3  T
     SCC iter.                  ...        0 min,  0.871 sec
     gradient                   ...        0 min,  0.113 sec
 * total energy  :  -105.1348534 Eh     change       -0.1379672E-04 Eh
   gradient norm :     0.0018144 Eh/α   predicted    -0.8749709E-05 ( -36.58%)
   displ. norm   :     0.1203602 α      lambda       -0.1663930E-04
   maximum displ.:     0.0502583 α      in ANC's #6, #2, #7, ...

........................................................................
.............................. CYCLE   25 ..............................
........................................................................

 iter      E             dE          RMSdq      gap      omega  full diag
   1   -106.6996194 -0.106700E+03  0.200E-02    2.73       0.0  T
   2   -106.6996198 -0.419801E-06  0.109E-02    2.73       1.1  T
   3   -106.6996197  0.161573E-06  0.283E-03    2.73       4.1  T
   4   -106.6996198 -0.168772E-06  0.147E-03    2.73       7.9  T
   5   -106.6996199 -0.866824E-07  0.452E-04    2.73      25.7  T
   6   -106.6996199 -0.326999E-08  0.243E-04    2.73      47.8  T
     SCC iter.                  ...        0 min,  0.771 sec
     gradient                   ...        0 min,  0.115 sec
 * total energy  :  -105.1348695 Eh     change       -0.1602693E-04 Eh
   gradient norm :     0.0014458 Eh/α   predicted    -0.8373421E-05 ( -47.75%)
   displ. norm   :     0.1436314 α      lambda       -0.1860109E-04
   maximum displ.:     0.0589929 α      in ANC's #6, #2, #29, ...

........................................................................
.............................. CYCLE   26 ..............................
........................................................................

 iter      E             dE          RMSdq      gap      omega  full diag
   1   -106.6998044 -0.106700E+03  0.215E-02    2.73       0.0  T
   2   -106.6998047 -0.293758E-06  0.124E-02    2.73       1.0  T
   3   -106.6998043  0.431261E-06  0.320E-03    2.73       3.6  T
   4   -106.6998048 -0.500718E-06  0.109E-03    2.73      10.7  T
   5   -106.6998048 -0.320726E-07  0.387E-04    2.73      30.1  T
   6   -106.6998048 -0.755419E-08  0.129E-04    2.73      90.2  T
     SCC iter.                  ...        0 min,  0.842 sec
     gradient                   ...        0 min,  0.124 sec
 * total energy  :  -105.1348895 Eh     change       -0.2003425E-04 Eh
   gradient norm :     0.0015969 Eh/α   predicted    -0.9387190E-05 ( -53.14%)
   displ. norm   :     0.1581935 α      lambda       -0.1762204E-04
   maximum displ.:     0.0645445 α      in ANC's #2, #6, #29, ...

........................................................................
.............................. CYCLE   27 ..............................
........................................................................

 iter      E             dE          RMSdq      gap      omega  full diag
   1   -106.6998501 -0.106700E+03  0.224E-02    2.74       0.0  T
   2   -106.6998503 -0.199681E-06  0.132E-02    2.74       1.0  T
   3   -106.6998498  0.478135E-06  0.287E-03    2.74       4.0  T
   4   -106.6998504 -0.551295E-06  0.831E-04    2.74      14.0  T
   5   -106.6998504 -0.191049E-07  0.287E-04    2.74      40.6  T
     SCC iter.                  ...        0 min,  0.616 sec
     gradient                   ...        0 min,  0.115 sec
 * total energy  :  -105.1349086 Eh     change       -0.1912603E-04 Eh
   gradient norm :     0.0019075 Eh/α   predicted    -0.8910006E-05 ( -53.41%)
   displ. norm   :     0.1808234 α      lambda       -0.1907947E-04
   maximum displ.:     0.0772718 α      in ANC's #29, #2, #6, ...

........................................................................
.............................. CYCLE   28 ..............................
........................................................................

 iter      E             dE          RMSdq      gap      omega  full diag
   1   -106.6996902 -0.106700E+03  0.241E-02    2.74       0.0  T
   2   -106.6996904 -0.191545E-06  0.141E-02    2.74       1.0  T
   3   -106.6996899  0.576372E-06  0.296E-03    2.74       3.9  T
   4   -106.6996905 -0.667289E-06  0.831E-04    2.74      14.0  T
   5   -106.6996905 -0.178296E-07  0.256E-04    2.74      45.5  T
     SCC iter.                  ...        0 min,  0.610 sec
     gradient                   ...        0 min,  0.117 sec
 * total energy  :  -105.1349306 Eh     change       -0.2198842E-04 Eh
   gradient norm :     0.0021002 Eh/α   predicted    -0.9680221E-05 ( -55.98%)
   displ. norm   :     0.1680586 α      lambda       -0.3189561E-04
   maximum displ.:     0.0760988 α      in ANC's #29, #2, #6, ...

........................................................................
.............................. CYCLE   29 ..............................
........................................................................

 iter      E             dE          RMSdq      gap      omega  full diag
   1   -106.6997319 -0.106700E+03  0.216E-02    2.74       0.0  T
   2   -106.6997321 -0.172876E-06  0.126E-02    2.74       1.0  T
   3   -106.6997317  0.390603E-06  0.257E-03    2.74       4.5  T
   4   -106.6997322 -0.447008E-06  0.891E-04    2.74      13.0  T
   5   -106.6997322 -0.277461E-07  0.218E-04    2.74      53.4  T
     SCC iter.                  ...        0 min,  0.642 sec
     gradient                   ...        0 min,  0.112 sec
 * total energy  :  -105.1349568 Eh     change       -0.2623461E-04 Eh
   gradient norm :     0.0017169 Eh/α   predicted    -0.1639863E-04 ( -37.49%)
   displ. norm   :     0.5869950 α      lambda       -0.5941508E-04
   maximum displ.:     0.2672682 α      in ANC's #29, #2, #6, ...

........................................................................
.............................. CYCLE   30 ..............................
........................................................................

 iter      E             dE          RMSdq      gap      omega  full diag
   1   -106.6946242 -0.106695E+03  0.786E-02    2.74       0.0  T
   2   -106.6946302 -0.595562E-05  0.454E-02    2.74       1.0  T
   3   -106.6946266  0.358025E-05  0.948E-03    2.74       1.2  T
   4   -106.6946307 -0.403201E-05  0.400E-03    2.74       2.9  T
   5   -106.6946314 -0.774045E-06  0.114E-03    2.74      10.2  T
   6   -106.6946314 -0.210091E-07  0.454E-04    2.74      25.6  T
   7   -106.6946315 -0.539789E-08  0.226E-04    2.74      51.4  T
     SCC iter.                  ...        0 min,  1.028 sec
     gradient                   ...        0 min,  0.122 sec
 * total energy  :  -105.1348681 Eh     change        0.8878017E-04 Eh
   gradient norm :     0.0111481 Eh/α   predicted    -0.3425827E-04 (-138.59%)
   displ. norm   :     0.1631322 α      lambda       -0.3281689E-03
   maximum displ.:     0.0637730 α      in ANC's #6, #7, #2, ...

........................................................................
.............................. CYCLE   31 ..............................
........................................................................

 iter      E             dE          RMSdq      gap      omega  full diag
   1   -106.6989841 -0.106699E+03  0.313E-02    2.74       0.0  T
   2   -106.6989884 -0.433959E-05  0.174E-02    2.74       1.0  T
   3   -106.6989882  0.179023E-06  0.531E-03    2.74       2.2  T
   4   -106.6989885 -0.308946E-06  0.208E-03    2.74       5.6  T
   5   -106.6989888 -0.231815E-06  0.720E-04    2.74      16.2  T
   6   -106.6989888 -0.391562E-08  0.284E-04    2.74      41.0  T
     SCC iter.                  ...        0 min,  0.886 sec
     gradient                   ...        0 min,  0.117 sec
 * total energy  :  -105.1350266 Eh     change       -0.1585049E-03 Eh
   gradient norm :     0.0021588 Eh/α   predicted    -0.1684518E-03 (   6.28%)
   displ. norm   :     0.0501389 α      lambda       -0.2420803E-04
   maximum displ.:     0.0200347 α      in ANC's #1, #29, #4, ...

........................................................................
.............................. CYCLE   32 ..............................
........................................................................

 iter      E             dE          RMSdq      gap      omega  full diag
   1   -106.6994008 -0.106699E+03  0.934E-03    2.74       0.0  T
   2   -106.6994009 -0.461722E-07  0.539E-03    2.74       2.2  T
   3   -106.6994009  0.271246E-07  0.856E-04    2.74      13.6  T
   4   -106.6994009 -0.329231E-07  0.372E-04    2.74      31.3  T
     SCC iter.                  ...        0 min,  0.401 sec
     gradient                   ...        0 min,  0.116 sec
 * total energy  :  -105.1350482 Eh     change       -0.2165680E-04 Eh
   gradient norm :     0.0014369 Eh/α   predicted    -0.1213662E-04 ( -43.96%)
   displ. norm   :     0.5444339 α      lambda       -0.1067095E-03
   maximum displ.:     0.2282791 α      in ANC's #1, #29, #4, ...

........................................................................
.............................. CYCLE   33 ..............................
........................................................................

 iter      E             dE          RMSdq      gap      omega  full diag
   1   -106.6977159 -0.106698E+03  0.850E-02    2.74       0.0  T
   2   -106.6977190 -0.311191E-05  0.494E-02    2.74       1.0  T
   3   -106.6977155  0.353123E-05  0.813E-03    2.74       1.4  T
   4   -106.6977196 -0.416102E-05  0.306E-03    2.74       3.8  T
   5   -106.6977200 -0.346483E-06  0.110E-03    2.74      10.6  T
   6   -106.6977200 -0.235333E-07  0.498E-04    2.74      23.3  T
   7   -106.6977200 -0.329221E-08  0.299E-04    2.74      38.9  T
     SCC iter.                  ...        0 min,  0.853 sec
     gradient                   ...        0 min,  0.113 sec
 * total energy  :  -105.1350888 Eh     change       -0.4055182E-04 Eh
   gradient norm :     0.0065897 Eh/α   predicted    -0.6038684E-04 (  48.91%)
   displ. norm   :     0.1249346 α      lambda       -0.8761356E-04
   maximum displ.:     0.0553834 α      in ANC's #29, #6, #2, ...

........................................................................
.............................. CYCLE   34 ..............................
........................................................................

 iter      E             dE          RMSdq      gap      omega  full diag
   1   -106.7001198 -0.106700E+03  0.204E-02    2.74       0.0  T
   2   -106.7001209 -0.111977E-05  0.115E-02    2.74       1.0  T
   3   -106.7001209  0.677815E-07  0.280E-03    2.74       4.2  T
   4   -106.7001210 -0.105037E-06  0.117E-03    2.74       9.9  T
   5   -106.7001210 -0.656426E-07  0.421E-04    2.74      27.6  T
   6   -106.7001211 -0.299998E-08  0.145E-04    2.74      80.1  T
     SCC iter.                  ...        0 min,  0.752 sec
     gradient                   ...        0 min,  0.117 sec
 * total energy  :  -105.1351294 Eh     change       -0.4066611E-04 Eh
   gradient norm :     0.0019367 Eh/α   predicted    -0.4449700E-04 (   9.42%)
   displ. norm   :     0.1335537 α      lambda       -0.2375272E-04
   maximum displ.:     0.0567728 α      in ANC's #1, #29, #5, ...

........................................................................
.............................. CYCLE   35 ..............................
........................................................................

 iter      E             dE          RMSdq      gap      omega  full diag
   1   -106.6997434 -0.106700E+03  0.175E-02    2.74       0.0  T
   2   -106.6997435 -0.155240E-06  0.103E-02    2.74       1.1  T
   3   -106.6997433  0.224245E-06  0.191E-03    2.74       6.1  T
   4   -106.6997435 -0.259770E-06  0.658E-04    2.74      17.7  T
   5   -106.6997436 -0.180325E-07  0.278E-04    2.74      41.8  T
     SCC iter.                  ...        0 min,  0.620 sec
     gradient                   ...        0 min,  0.113 sec
 * total energy  :  -105.1351552 Eh     change       -0.2578817E-04 Eh
   gradient norm :     0.0009890 Eh/α   predicted    -0.1197330E-04 ( -53.57%)
   displ. norm   :     0.2983628 α      lambda       -0.3561925E-04
   maximum displ.:     0.1434200 α      in ANC's #1, #29, #4, ...

........................................................................
.............................. CYCLE   36 ..............................
........................................................................

 iter      E             dE          RMSdq      gap      omega  full diag
   1   -106.6986149 -0.106699E+03  0.377E-02    2.74       0.0  T
   2   -106.6986154 -0.498800E-06  0.223E-02    2.74       1.0  T
   3   -106.6986143  0.108397E-05  0.384E-03    2.74       3.0  T
   4   -106.6986156 -0.127938E-05  0.921E-04    2.74      12.6  T
   5   -106.6986156 -0.227741E-07  0.418E-04    2.74      27.8  T
   6   -106.6986156 -0.113070E-08  0.137E-04    2.74      85.0  T
     SCC iter.                  ...        0 min,  0.580 sec
     gradient                   ...        0 min,  0.115 sec
 * total energy  :  -105.1351906 Eh     change       -0.3534599E-04 Eh
   gradient norm :     0.0028955 Eh/α   predicted    -0.1852573E-04 ( -47.59%)
   displ. norm   :     0.1414428 α      lambda       -0.3479478E-04
   maximum displ.:     0.0715036 α      in ANC's #1, #5, #4, ...

........................................................................
.............................. CYCLE   37 ..............................
........................................................................

 iter      E             dE          RMSdq      gap      omega  full diag
   1   -106.6992065 -0.106699E+03  0.182E-02    2.75       0.0  T
   2   -106.6992066 -0.139862E-06  0.106E-02    2.75       1.1  T
   3   -106.6992064  0.220528E-06  0.192E-03    2.75       6.1  T
   4   -106.6992067 -0.260215E-06  0.585E-04    2.75      19.9  T
   5   -106.6992067 -0.123145E-07  0.221E-04    2.75      52.5  T
     SCC iter.                  ...        0 min,  0.560 sec
     gradient                   ...        0 min,  0.110 sec
 * total energy  :  -105.1352178 Eh     change       -0.2722077E-04 Eh
   gradient norm :     0.0021810 Eh/α   predicted    -0.1775062E-04 ( -34.79%)
   displ. norm   :     0.2286075 α      lambda       -0.4129394E-04
   maximum displ.:     0.1188754 α      in ANC's #1, #5, #4, ...

........................................................................
.............................. CYCLE   38 ..............................
........................................................................

 iter      E             dE          RMSdq      gap      omega  full diag
   1   -106.6992630 -0.106699E+03  0.280E-02    2.75       0.0  T
   2   -106.6992633 -0.227299E-06  0.164E-02    2.75       1.0  T
   3   -106.6992627  0.540012E-06  0.289E-03    2.75       4.0  T
   4   -106.6992634 -0.641607E-06  0.821E-04    2.75      14.2  T
   5   -106.6992634 -0.166174E-07  0.393E-04    2.75      29.6  T
     SCC iter.                  ...        0 min,  0.721 sec
     gradient                   ...        0 min,  0.115 sec
 * total energy  :  -105.1352474 Eh     change       -0.2963319E-04 Eh
   gradient norm :     0.0021753 Eh/α   predicted    -0.2174161E-04 ( -26.63%)
   displ. norm   :     0.1698058 α      lambda       -0.3227370E-04
   maximum displ.:     0.0906207 α      in ANC's #1, #5, #4, ...

........................................................................
.............................. CYCLE   39 ..............................
........................................................................

 iter      E             dE          RMSdq      gap      omega  full diag
   1   -106.7000176 -0.106700E+03  0.196E-02    2.75       0.0  T
   2   -106.7000178 -0.245456E-06  0.114E-02    2.75       1.0  T
   3   -106.7000176  0.189313E-06  0.216E-03    2.75       5.4  T
   4   -106.7000178 -0.215970E-06  0.868E-04    2.75      13.4  T
   5   -106.7000179 -0.360080E-07  0.381E-04    2.75      30.5  T
     SCC iter.                  ...        0 min,  0.513 sec
     gradient                   ...        0 min,  0.113 sec
 * total energy  :  -105.1352693 Eh     change       -0.2183312E-04 Eh
   gradient norm :     0.0011942 Eh/α   predicted    -0.1660989E-04 ( -23.92%)
   displ. norm   :     0.4087662 α      lambda       -0.2964164E-04
   maximum displ.:     0.2265147 α      in ANC's #1, #29, #4, ...

........................................................................
.............................. CYCLE   40 ..............................
........................................................................

 iter      E             dE          RMSdq      gap      omega  full diag
   1   -106.6972952 -0.106697E+03  0.471E-02    2.74       0.0  T
   2   -106.6972968 -0.166596E-05  0.275E-02    2.74       1.0  T
   3   -106.6972956  0.121155E-05  0.515E-03    2.74       2.3  T
   4   -106.6972970 -0.141638E-05  0.202E-03    2.74       5.8  T
   5   -106.6972972 -0.195777E-06  0.843E-04    2.74      13.8  T
   6   -106.6972972 -0.136326E-07  0.324E-04    2.74      35.9  T
     SCC iter.                  ...        0 min,  0.907 sec
     gradient                   ...        0 min,  0.120 sec
 * total energy  :  -105.1352561 Eh     change        0.1311018E-04 Eh
   gradient norm :     0.0054424 Eh/α   predicted    -0.1593046E-04 (-221.51%)
   displ. norm   :     0.1136251 α      lambda       -0.7662637E-04
   maximum displ.:     0.0430806 α      in ANC's #1, #4, #5, ...

........................................................................
.............................. CYCLE   41 ..............................
........................................................................

 iter      E             dE          RMSdq      gap      omega  full diag
   1   -106.6997860 -0.106700E+03  0.182E-02    2.74       0.0  T
   2   -106.6997869 -0.814715E-06  0.104E-02    2.74       1.1  T
   3   -106.6997868  0.422845E-07  0.217E-03    2.74       5.4  T
   4   -106.6997869 -0.798625E-07  0.790E-04    2.74      14.7  T
   5   -106.6997869 -0.355417E-07  0.359E-04    2.74      32.4  T
     SCC iter.                  ...        0 min,  0.652 sec
     gradient                   ...        0 min,  0.120 sec
 * total energy  :  -105.1352966 Eh     change       -0.4046581E-04 Eh
   gradient norm :     0.0018440 Eh/α   predicted    -0.3878078E-04 (  -4.16%)
   displ. norm   :     0.0795048 α      lambda       -0.2096135E-04
   maximum displ.:     0.0342115 α      in ANC's #12, #5, #28, ...

........................................................................
.............................. CYCLE   42 ..............................
........................................................................

 iter      E             dE          RMSdq      gap      omega  full diag
   1   -106.7009067 -0.106701E+03  0.156E-02    2.74       0.0  T
   2   -106.7009074 -0.708011E-06  0.885E-03    2.74       1.3  T
   3   -106.7009073  0.574549E-07  0.221E-03    2.74       5.3  T
   4   -106.7009074 -0.921544E-07  0.779E-04    2.74      14.9  T
   5   -106.7009074 -0.359741E-07  0.381E-04    2.74      30.5  T
     SCC iter.                  ...        0 min,  0.678 sec
     gradient                   ...        0 min,  0.117 sec
 * total energy  :  -105.1352970 Eh     change       -0.3412528E-06 Eh
   gradient norm :     0.0030449 Eh/α   predicted    -0.1051962E-04 (2982.65%)
   displ. norm   :     0.0334362 α      lambda       -0.2016055E-04
   maximum displ.:     0.0176207 α      in ANC's #1, #29, #18, ...
 * RMSD in coord.:     0.3149867 α      energy gain  -0.4942822E-03 Eh

generating ANC from exact Hessian ...
Using Lindh-Hessian (1995)
 Shifting diagonal of input Hessian by    9.9009647832742648E-003
 Lowest  eigenvalues of input Hessian
    0.000000    0.000000    0.000000    0.000000    0.000000    0.000000
    0.010000    0.010127    0.010164    0.010388    0.010445    0.010477
    0.010605    0.011380    0.011645    0.011710    0.012202    0.012410
 Highest eigenvalues
    1.997409    2.016429    2.038496    2.048306    2.120841    2.286016


........................................................................
.............................. CYCLE   43 ..............................
........................................................................

 iter      E             dE          RMSdq      gap      omega  full diag
   1   -106.7006596 -0.106701E+03  0.560E-03    2.74       0.0  T
   2   -106.7006598 -0.124799E-06  0.313E-03    2.74       3.7  T
   3   -106.7006597  0.377771E-08  0.888E-04    2.74      13.1  T
   4   -106.7006598 -0.861129E-08  0.319E-04    2.74      36.4  T
     SCC iter.                  ...        0 min,  0.430 sec
     gradient                   ...        0 min,  0.115 sec
 * total energy  :  -105.1353121 Eh     change       -0.1514648E-04 Eh
   gradient norm :     0.0012110 Eh/α   predicted     0.0000000E+00 (-100.00%)
   displ. norm   :     0.0236666 α      lambda       -0.6458979E-05
   maximum displ.:     0.0107919 α      in ANC's #29, #7, #19, ...

........................................................................
.............................. CYCLE   44 ..............................
........................................................................

 iter      E             dE          RMSdq      gap      omega  full diag
   1   -106.7001406 -0.106700E+03  0.455E-03    2.74       0.0  T
   2   -106.7001407 -0.735224E-07  0.256E-03    2.74       4.5  T
   3   -106.7001407  0.184062E-08  0.667E-04    2.74      17.4  T
   4   -106.7001407 -0.505835E-08  0.242E-04    2.74      48.1  T
     SCC iter.                  ...        0 min,  0.432 sec
     gradient                   ...        0 min,  0.127 sec
 * total energy  :  -105.1353188 Eh     change       -0.6738397E-05 Eh
   gradient norm :     0.0004211 Eh/α   predicted    -0.3255691E-05 ( -51.68%)
   displ. norm   :     0.0556589 α      lambda       -0.7630949E-05
   maximum displ.:     0.0271492 α      in ANC's #29, #7, #19, ...

........................................................................
.............................. CYCLE   45 ..............................
........................................................................

 iter      E             dE          RMSdq      gap      omega  full diag
   1   -106.6998274 -0.106700E+03  0.787E-03    2.74       0.0  T
   2   -106.6998274 -0.432238E-07  0.454E-03    2.74       2.6  T
   3   -106.6998274  0.156924E-07  0.766E-04    2.74      15.2  T
   4   -106.6998274 -0.158186E-07  0.373E-04    2.74      31.2  T
     SCC iter.                  ...        0 min,  0.450 sec
     gradient                   ...        0 min,  0.117 sec
 * total energy  :  -105.1353283 Eh     change       -0.9474937E-05 Eh
   gradient norm :     0.0011099 Eh/α   predicted    -0.3827763E-05 ( -59.60%)
   displ. norm   :     0.1779112 α      lambda       -0.2058297E-04
   maximum displ.:     0.0920981 α      in ANC's #29, #7, #5, ...

........................................................................
.............................. CYCLE   46 ..............................
........................................................................

 iter      E             dE          RMSdq      gap      omega  full diag
   1   -106.6991999 -0.106699E+03  0.236E-02    2.75       0.0  T
   2   -106.6992002 -0.338630E-06  0.137E-02    2.75       1.0  T
   3   -106.6992001  0.148584E-06  0.237E-03    2.75       4.9  T
   4   -106.6992003 -0.183703E-06  0.953E-04    2.75      12.2  T
   5   -106.6992003 -0.330565E-07  0.424E-04    2.75      27.4  T
     SCC iter.                  ...        0 min,  0.570 sec
     gradient                   ...        0 min,  0.117 sec
 * total energy  :  -105.1353464 Eh     change       -0.1805794E-04 Eh
   gradient norm :     0.0025801 Eh/α   predicted    -0.1044112E-04 ( -42.18%)
   displ. norm   :     0.1184466 α      lambda       -0.2051432E-04
   maximum displ.:     0.0625892 α      in ANC's #29, #7, #19, ...

........................................................................
.............................. CYCLE   47 ..............................
........................................................................

 iter      E             dE          RMSdq      gap      omega  full diag
   1   -106.6990408 -0.106699E+03  0.190E-02    2.75       0.0  T
   2   -106.6990412 -0.395067E-06  0.104E-02    2.75       1.1  T
   3   -106.6990412  0.372128E-08  0.248E-03    2.75       4.7  T
   4   -106.6990412 -0.765114E-08  0.115E-03    2.75      10.2  T
   5   -106.6990413 -0.452613E-07  0.474E-04    2.75      24.5  T
   6   -106.6990413 -0.697754E-08  0.181E-04    2.75      64.3  T
     SCC iter.                  ...        0 min,  0.743 sec
     gradient                   ...        0 min,  0.117 sec
 * total energy  :  -105.1353580 Eh     change       -0.1157604E-04 Eh
   gradient norm :     0.0028382 Eh/α   predicted    -0.1040262E-04 ( -10.14%)
   displ. norm   :     0.0812360 α      lambda       -0.1684005E-04
   maximum displ.:     0.0449475 α      in ANC's #29, #7, #5, ...

........................................................................
.............................. CYCLE   48 ..............................
........................................................................

 iter      E             dE          RMSdq      gap      omega  full diag
   1   -106.6994309 -0.106699E+03  0.106E-02    2.75       0.0  T
   2   -106.6994310 -0.584551E-07  0.618E-03    2.75       1.9  T
   3   -106.6994309  0.610533E-07  0.112E-03    2.75      10.4  T
   4   -106.6994310 -0.694029E-07  0.450E-04    2.75      25.9  T
   5   -106.6994310 -0.890240E-08  0.117E-04    2.75      99.1  T
     SCC iter.                  ...        0 min,  0.576 sec
     gradient                   ...        0 min,  0.114 sec
 * total energy  :  -105.1353724 Eh     change       -0.1444536E-04 Eh
   gradient norm :     0.0020392 Eh/α   predicted    -0.8476018E-05 ( -41.32%)
   displ. norm   :     0.2157881 α      lambda       -0.3853155E-04
   maximum displ.:     0.1229620 α      in ANC's #29, #7, #5, ...

........................................................................
.............................. CYCLE   49 ..............................
........................................................................

 iter      E             dE          RMSdq      gap      omega  full diag
   1   -106.6998716 -0.106700E+03  0.280E-02    2.75       0.0  T
   2   -106.6998720 -0.339799E-06  0.163E-02    2.75       1.0  T
   3   -106.6998716  0.339247E-06  0.278E-03    2.75       4.2  T
   4   -106.6998720 -0.397711E-06  0.110E-03    2.75      10.5  T
   5   -106.6998721 -0.438877E-07  0.364E-04    2.75      31.9  T
   6   -106.6998721 -0.357134E-08  0.137E-04    2.75      85.0  T
     SCC iter.                  ...        0 min,  0.789 sec
     gradient                   ...        0 min,  0.113 sec
 * total energy  :  -105.1353985 Eh     change       -0.2608573E-04 Eh
   gradient norm :     0.0009554 Eh/α   predicted    -0.2016436E-04 ( -22.70%)
   displ. norm   :     0.2413691 α      lambda       -0.1704078E-04
   maximum displ.:     0.1415800 α      in ANC's #29, #7, #5, ...

........................................................................
.............................. CYCLE   50 ..............................
........................................................................

 iter      E             dE          RMSdq      gap      omega  full diag
   1   -106.6996793 -0.106700E+03  0.306E-02    2.74       0.0  T
   2   -106.6996796 -0.294738E-06  0.178E-02    2.74       1.0  T
   3   -106.6996793  0.302797E-06  0.277E-03    2.74       4.2  T
   4   -106.6996797 -0.345743E-06  0.126E-03    2.74       9.2  T
   5   -106.6996797 -0.665927E-07  0.273E-04    2.74      42.5  T
   6   -106.6996797 -0.122739E-08  0.158E-04    2.74      73.6  T
     SCC iter.                  ...        0 min,  0.806 sec
     gradient                   ...        0 min,  0.119 sec
 * total energy  :  -105.1354145 Eh     change       -0.1597851E-04 Eh
   gradient norm :     0.0017709 Eh/α   predicted    -0.8741574E-05 ( -45.29%)
   displ. norm   :     0.1320917 α      lambda       -0.2094848E-04
   maximum displ.:     0.0693022 α      in ANC's #29, #28, #6, ...

........................................................................
.............................. CYCLE   51 ..............................
........................................................................

 iter      E             dE          RMSdq      gap      omega  full diag
   1   -106.7014295 -0.106701E+03  0.226E-02    2.74       0.0  T
   2   -106.7014301 -0.630869E-06  0.127E-02    2.74       1.0  T
   3   -106.7014300  0.118476E-06  0.256E-03    2.74       4.5  T
   4   -106.7014301 -0.126410E-06  0.121E-03    2.74       9.6  T
   5   -106.7014302 -0.742057E-07  0.407E-04    2.74      28.6  T
   6   -106.7014302 -0.407881E-08  0.145E-04    2.74      80.3  T
     SCC iter.                  ...        0 min,  0.815 sec
     gradient                   ...        0 min,  0.117 sec
 * total energy  :  -105.1354214 Eh     change       -0.6960087E-05 Eh
   gradient norm :     0.0027268 Eh/α   predicted    -0.1055606E-04 (  51.67%)
   displ. norm   :     0.2037862 α      lambda       -0.2826723E-04
   maximum displ.:     0.1212102 α      in ANC's #29, #18, #7, ...

........................................................................
.............................. CYCLE   52 ..............................
........................................................................

 iter      E             dE          RMSdq      gap      omega  full diag
   1   -106.6997497 -0.106700E+03  0.247E-02    2.74       0.0  T
   2   -106.6997503 -0.532765E-06  0.145E-02    2.74       1.0  T
   3   -106.6997501  0.173571E-06  0.234E-03    2.74       5.0  T
   4   -106.6997503 -0.217609E-06  0.968E-04    2.74      12.0  T
   5   -106.6997504 -0.441803E-07  0.352E-04    2.74      33.1  T
     SCC iter.                  ...        0 min,  0.627 sec
     gradient                   ...        0 min,  0.143 sec
 * total energy  :  -105.1354368 Eh     change       -0.1541006E-04 Eh
   gradient norm :     0.0021674 Eh/α   predicted    -0.1472324E-04 (  -4.46%)
   displ. norm   :     0.0331783 α      lambda       -0.1284935E-04
   maximum displ.:     0.0149911 α      in ANC's #7, #29, #9, ...

........................................................................
.............................. CYCLE   53 ..............................
........................................................................

 iter      E             dE          RMSdq      gap      omega  full diag
   1   -106.6998404 -0.106700E+03  0.745E-03    2.74       0.0  T
   2   -106.6998405 -0.817254E-07  0.404E-03    2.74       2.9  T
   3   -106.6998405  0.122939E-07  0.110E-03    2.74      10.6  T
   4   -106.6998405 -0.194421E-07  0.459E-04    2.74      25.3  T
   5   -106.6998405 -0.501726E-08  0.201E-04    2.74      57.7  T
     SCC iter.                  ...        0 min,  0.518 sec
     gradient                   ...        0 min,  0.115 sec
 * total energy  :  -105.1354467 Eh     change       -0.9891558E-05 Eh
   gradient norm :     0.0011808 Eh/α   predicted    -0.6432438E-05 ( -34.97%)
   displ. norm   :     0.1416760 α      lambda       -0.2142276E-04
   maximum displ.:     0.0519650 α      in ANC's #6, #29, #28, ...

........................................................................
.............................. CYCLE   54 ..............................
........................................................................

 iter      E             dE          RMSdq      gap      omega  full diag
   1   -106.6992974 -0.106699E+03  0.207E-02    2.75       0.0  T
   2   -106.6992978 -0.317472E-06  0.119E-02    2.75       1.0  T
   3   -106.6992976  0.157106E-06  0.253E-03    2.75       4.6  T
   4   -106.6992978 -0.174775E-06  0.101E-03    2.75      11.5  T
   5   -106.6992978 -0.516472E-07  0.346E-04    2.75      33.6  T
   6   -106.6992978 -0.392257E-08  0.119E-04    2.75      97.6  T
     SCC iter.                  ...        0 min,  0.626 sec
     gradient                   ...        0 min,  0.115 sec
 * total energy  :  -105.1354619 Eh     change       -0.1513562E-04 Eh
   gradient norm :     0.0021623 Eh/α   predicted    -0.1080771E-04 ( -28.59%)
   displ. norm   :     0.0482349 α      lambda       -0.1114294E-04
   maximum displ.:     0.0264249 α      in ANC's #7, #9, #5, ...

........................................................................
.............................. CYCLE   55 ..............................
........................................................................

 iter      E             dE          RMSdq      gap      omega  full diag
   1   -106.7001191 -0.106700E+03  0.904E-03    2.75       0.0  T
   2   -106.7001193 -0.122330E-06  0.477E-03    2.75       2.4  T
   3   -106.7001193  0.106675E-07  0.119E-03    2.75       9.8  T
   4   -106.7001193 -0.567914E-08  0.647E-04    2.75      18.0  T
   5   -106.7001193 -0.217234E-07  0.150E-04    2.75      77.5  T
     SCC iter.                  ...        0 min,  0.447 sec
     gradient                   ...        0 min,  0.113 sec
 * total energy  :  -105.1354692 Eh     change       -0.7325368E-05 Eh
   gradient norm :     0.0013457 Eh/α   predicted    -0.5586164E-05 ( -23.74%)
   displ. norm   :     0.1724696 α      lambda       -0.1647860E-04
   maximum displ.:     0.0907142 α      in ANC's #29, #6, #28, ...

........................................................................
.............................. CYCLE   56 ..............................
........................................................................

 iter      E             dE          RMSdq      gap      omega  full diag
   1   -106.7002544 -0.106700E+03  0.265E-02    2.74       0.0  T
   2   -106.7002548 -0.400221E-06  0.150E-02    2.74       1.0  T
   3   -106.7002547  0.120793E-06  0.285E-03    2.74       4.1  T
   4   -106.7002548 -0.107063E-06  0.148E-03    2.74       7.8  T
   5   -106.7002549 -0.100536E-06  0.332E-04    2.74      35.1  T
   6   -106.7002549 -0.252894E-08  0.141E-04    2.74      82.4  T
     SCC iter.                  ...        0 min,  0.606 sec
     gradient                   ...        0 min,  0.115 sec
 * total energy  :  -105.1354825 Eh     change       -0.1334152E-04 Eh
   gradient norm :     0.0017371 Eh/α   predicted    -0.8351717E-05 ( -37.40%)
   displ. norm   :     0.0763488 α      lambda       -0.8046929E-05
   maximum displ.:     0.0368481 α      in ANC's #29, #6, #28, ...

........................................................................
.............................. CYCLE   57 ..............................
........................................................................

 iter      E             dE          RMSdq      gap      omega  full diag
   1   -106.7001064 -0.106700E+03  0.126E-02    2.74       0.0  T
   2   -106.7001065 -0.141699E-06  0.720E-03    2.74       1.6  T
   3   -106.7001065  0.617679E-07  0.148E-03    2.74       7.8  T
   4   -106.7001065 -0.596285E-07  0.716E-04    2.74      16.2  T
   5   -106.7001066 -0.273186E-07  0.182E-04    2.74      63.8  T
     SCC iter.                  ...        0 min,  0.618 sec
     gradient                   ...        0 min,  0.113 sec
 * total energy  :  -105.1354900 Eh     change       -0.7493986E-05 Eh
   gradient norm :     0.0009674 Eh/α   predicted    -0.4038828E-05 ( -46.11%)
   displ. norm   :     0.0985809 α      lambda       -0.7102667E-05
   maximum displ.:     0.0530054 α      in ANC's #29, #6, #19, ...

........................................................................
.............................. CYCLE   58 ..............................
........................................................................

 iter      E             dE          RMSdq      gap      omega  full diag
   1   -106.6997862 -0.106700E+03  0.154E-02    2.74       0.0  T
   2   -106.6997863 -0.131892E-06  0.884E-03    2.74       1.3  T
   3   -106.6997862  0.130270E-06  0.208E-03    2.74       5.6  T
   4   -106.6997864 -0.159345E-06  0.740E-04    2.74      15.7  T
   5   -106.6997864 -0.858694E-08  0.338E-04    2.74      34.4  T
     SCC iter.                  ...        0 min,  0.556 sec
     gradient                   ...        0 min,  0.117 sec
 * total energy  :  -105.1354966 Eh     change       -0.6630160E-05 Eh
   gradient norm :     0.0011355 Eh/α   predicted    -0.3571056E-05 ( -46.14%)
   displ. norm   :     0.0703316 α      lambda       -0.6796986E-05
   maximum displ.:     0.0363767 α      in ANC's #29, #19, #7, ...

........................................................................
.............................. CYCLE   59 ..............................
........................................................................

 iter      E             dE          RMSdq      gap      omega  full diag
   1   -106.7000567 -0.106700E+03  0.102E-02    2.74       0.0  T
   2   -106.7000568 -0.677422E-07  0.588E-03    2.74       2.0  T
   3   -106.7000567  0.954712E-07  0.134E-03    2.74       8.7  T
   4   -106.7000568 -0.107566E-06  0.463E-04    2.74      25.1  T
   5   -106.7000568 -0.937435E-08  0.147E-04    2.74      79.2  T
     SCC iter.                  ...        0 min,  0.610 sec
     gradient                   ...        0 min,  0.116 sec
 * total energy  :  -105.1355040 Eh     change       -0.7312240E-05 Eh
   gradient norm :     0.0006929 Eh/α   predicted    -0.3410741E-05 ( -53.36%)
   displ. norm   :     0.1734446 α      lambda       -0.9292795E-05
   maximum displ.:     0.1151564 α      in ANC's #29, #19, #6, ...

........................................................................
.............................. CYCLE   60 ..............................
........................................................................

 iter      E             dE          RMSdq      gap      omega  full diag
   1   -106.6989299 -0.106699E+03  0.241E-02    2.74       0.0  T
   2   -106.6989304 -0.498705E-06  0.140E-02    2.74       1.0  T
   3   -106.6989302  0.223044E-06  0.279E-03    2.74       4.2  T
   4   -106.6989305 -0.264547E-06  0.114E-03    2.74      10.2  T
   5   -106.6989305 -0.485754E-07  0.425E-04    2.74      27.4  T
   6   -106.6989305 -0.766950E-08  0.138E-04    2.74      84.0  T
     SCC iter.                  ...        0 min,  0.683 sec
     gradient                   ...        0 min,  0.119 sec
 * total energy  :  -105.1355030 Eh     change        0.9613662E-06 Eh
   gradient norm :     0.0029454 Eh/α   predicted    -0.4713226E-05 (-590.26%)
   displ. norm   :     0.0613309 α      lambda       -0.1665644E-04
   maximum displ.:     0.0268494 α      in ANC's #29, #28, #6, ...

........................................................................
.............................. CYCLE   61 ..............................
........................................................................

[...]
        86        2.0000           -0.5332960             -14.5117
        87        2.0000           -0.5314566             -14.4617
        88        2.0000           -0.5258910             -14.3102
        89        2.0000           -0.5225920             -14.2205
        90        2.0000           -0.5169804             -14.0678
        91        2.0000           -0.5117733             -13.9261
        92        2.0000           -0.5081771             -13.8282
        93        2.0000           -0.5038434             -13.7103
        94        2.0000           -0.5033509             -13.6969
        95        2.0000           -0.4940476             -13.4437
        96        2.0000           -0.4921137             -13.3911
        97        2.0000           -0.4814795             -13.1017 (HOMO)
        98                         -0.3813258             -10.3764 (LUMO)
        99                         -0.3514940              -9.5646
       100                         -0.3405592              -9.2671
       101                         -0.3389190              -9.2225
       102                         -0.3348823              -9.1126
       103                         -0.3309563              -9.0058
       104                         -0.3225826              -8.7779
       105                         -0.3210434              -8.7360
       106                         -0.2818178              -7.6687
       107                         -0.2488011              -6.7702
       108                         -0.2396026              -6.5199
       ...                                ...                  ...
       200                          1.1024757              29.9999
      -------------------------------------------------------------
                  HL-Gap            0.1001537 Eh            2.7253 eV
             Fermi-level           -0.4314027 Eh          -11.7391 eV

     #   Z          covCN         q      C6AA      α(0)
     1   6 C        3.759    -0.117    22.796     6.807
     2   6 C        2.967     0.025    27.451     8.594
     3   6 C        2.930    -0.049    29.225     8.866
     4   6 C        2.966     0.022    27.510     8.603
     5   6 C        3.758    -0.115    22.757     6.801
     6   6 C        2.966    -0.049    29.214     8.866
     7   6 C        2.972     0.029    27.361     8.580
     8  16 S        2.074    -0.021   141.939    20.052
     9  16 S        1.903    -0.075   144.187    20.210
    10  15 P        4.542     0.572   137.238    21.044
    11   7 N        2.680    -0.173    24.735     7.386
    12   6 C        4.030     0.050    19.660     6.299
    13   6 C        3.755    -0.122    22.901     6.823
    14   6 C        3.754    -0.126    22.966     6.834
    15   6 C        3.913     0.045    19.763     6.319
    16   6 C        3.756    -0.127    22.989     6.836
    17   6 C        3.755    -0.125    22.945     6.830
    18   8 O        1.658    -0.270    18.486     5.804
    19   6 C        3.177     0.124    24.914     8.150
    20   6 C        2.919    -0.056    29.397     8.891
    21   6 C        2.924    -0.028    28.711     8.787
    22   6 C        2.915    -0.038    28.936     8.821
    23   6 C        3.023     0.017    27.605     8.618
    24   6 C        3.020    -0.013    28.320     8.729
    25   6 C        3.964     0.025    20.092     6.369
    26   6 C        3.853    -0.061    21.632     6.615
    27   6 C        3.833    -0.066    21.744     6.634
    28   6 C        3.855    -0.060    21.616     6.612
    29   6 C        3.834    -0.066    21.738     6.633
    30   6 C        3.022     0.018    27.592     8.616
    31   6 C        2.916    -0.035    28.874     8.812
    32   6 C        2.924    -0.024    28.601     8.770
    33   6 C        2.918    -0.052    29.289     8.875
    34   6 C        3.234     0.119    24.609     8.051
    35   6 C        3.023    -0.014    28.329     8.731
    36   8 O        1.657    -0.257    18.273     5.771
    37   6 C        2.958    -0.049    29.211     8.865
    38   1 H        0.925     0.054     2.276     2.359
    39   1 H        0.925     0.069     2.102     2.267
    40   1 H        0.925     0.054     2.268     2.355
    41   1 H        0.926     0.052     2.298     2.371
    42   1 H        0.925     0.049     2.337     2.391
    43   1 H        0.925     0.054     2.268     2.355
    44   1 H        0.925     0.067     2.120     2.277
    45   1 H        0.926     0.047     2.353     2.399
    46   1 H        0.924     0.042     2.421     2.433
    47   1 H        0.925     0.063     2.161     2.299
    48   1 H        0.925     0.057     2.235     2.338
    49   1 H        0.925     0.061     2.185     2.311
    50   1 H        0.925     0.060     2.195     2.317
    51   1 H        0.925     0.047     2.363     2.404
    52   1 H        0.925     0.067     2.120     2.277
    53   1 H        0.924     0.067     2.115     2.274
    54   1 H        0.925     0.056     2.248     2.345
    55   1 H        0.925     0.070     2.089     2.260
    56   1 H        0.925     0.051     2.310     2.377
    57   1 H        0.925     0.053     2.287     2.365
    58   1 H        0.925     0.068     2.106     2.270
    59   1 H        0.925     0.058     2.227     2.334
    60   1 H        0.926     0.060     2.203     2.321
    61   1 H        0.926     0.063     2.166     2.302
    62   1 H        0.926     0.064     2.151     2.293
    63   1 H        0.924     0.043     2.412     2.429
    64   1 H        0.925     0.054     2.265     2.353
    65   1 H        0.925     0.062     2.172     2.305
    66   1 H        0.924     0.065     2.145     2.290
    67   1 H        0.924     0.043     2.413     2.429
    68   1 H        0.925     0.053     2.279     2.361
    69   1 H        0.924     0.064     2.149     2.292
    70   1 H        0.925     0.063     2.163     2.300
    71   1 H        0.926     0.066     2.129     2.282
    72   1 H        0.926     0.068     2.103     2.268
    73   1 H        0.926     0.059     2.207     2.323
    74   1 H        0.926     0.051     2.303     2.373

 Mol. C6AA /au·bohr⁶  :      67489.514473
 Mol. C8AA /au·bohr⁸  :    1806425.053778
 Mol. α(0) /au        :        409.203793


Wiberg/Mayer (AO) data.
largest (>0.10) Wiberg bond orders for each atom

 ---------------------------------------------------------------------------
     #   Z sym  total        # sym  WBO       # sym  WBO       # sym  WBO
 ---------------------------------------------------------------------------
     1   6 C    3.993 --     2 C    1.030    38 H    0.980    40 H    0.979
                            39 H    0.960
     2   6 C    3.988 --     3 C    1.410    37 C    1.401     1 C    1.030
                             6 C    0.100
     3   6 C    3.989 --     4 C    1.410     2 C    1.410    41 H    0.966
     4   6 C    3.988 --     3 C    1.410     6 C    1.402     5 C    1.029
                            37 C    0.102
     5   6 C    3.993 --     4 C    1.029    42 H    0.983    43 H    0.977
                            44 H    0.961
     6   6 C    3.988 --     7 C    1.406     4 C    1.402    45 H    0.966
                             2 C    0.100
     7   6 C    3.951 --    37 C    1.413     6 C    1.406     8 S    0.972
     8  16 S    2.332 --     9 S    1.168     7 C    0.972
     9  16 S    2.422 --     8 S    1.168    10 P    0.972
    10  15 P    5.126 --    36 O    1.294    18 O    1.288    11 N    1.237
                             9 S    0.972
    11   7 N    3.382 --    10 P    1.237    12 C    0.941    15 C    0.937
    12   6 C    3.958 --    14 C    1.006    13 C    1.003    46 H    0.945
                            11 N    0.941
    13   6 C    3.988 --    12 C    1.003    47 H    0.981    48 H    0.981
                            49 H    0.980
    14   6 C    3.991 --    12 C    1.006    50 H    0.981    52 H    0.979
                            51 H    0.978
    15   6 C    3.953 --    16 C    1.007    17 C    1.007    53 H    0.955
                            11 N    0.937
    16   6 C    3.990 --    15 C    1.007    55 H    0.979    56 H    0.978
                            54 H    0.975
    17   6 C    3.990 --    15 C    1.007    57 H    0.984    58 H    0.980
                            59 H    0.979
    18   8 O    2.389 --    10 P    1.288    19 C    0.872
    19   6 C    3.879 --    24 C    1.405    20 C    1.382    18 O    0.872
    20   6 C    3.986 --    21 C    1.451    19 C    1.382    60 H    0.961
                            23 C    0.106
    21   6 C    3.985 --    20 C    1.451    22 C    1.420    61 H    0.968
                            24 C    0.105
    22   6 C    3.988 --    23 C    1.440    21 C    1.420    62 H    0.966
    23   6 C    3.984 --    22 C    1.440    24 C    1.345    27 C    1.017
                            20 C    0.106
    24   6 C    3.983 --    19 C    1.405    23 C    1.345    25 C    0.990
                            21 C    0.105
    25   6 C    3.989 --    35 C    0.991    24 C    0.990    26 C    0.957
                            28 C    0.955
    26   6 C    3.993 --    27 C    1.002    63 H    0.979    64 H    0.977
                            25 C    0.957
    27   6 C    3.994 --    23 C    1.017    26 C    1.002    65 H    0.965
                            66 H    0.955
    28   6 C    3.993 --    29 C    1.002    67 H    0.979    68 H    0.977
                            25 C    0.955
    29   6 C    3.994 --    30 C    1.017    28 C    1.002    70 H    0.965
                            69 H    0.955
    30   6 C    3.984 --    31 C    1.439    35 C    1.346    29 C    1.017
                            33 C    0.107
    31   6 C    3.988 --    30 C    1.439    32 C    1.421    71 H    0.966
    32   6 C    3.985 --    33 C    1.450    31 C    1.421    72 H    0.967
                            35 C    0.104
    33   6 C    3.986 --    32 C    1.450    34 C    1.383    73 H    0.963
                            30 C    0.107
    34   6 C    3.876 --    35 C    1.405    33 C    1.383    36 O    0.873
    35   6 C    3.982 --    34 C    1.405    30 C    1.346    25 C    0.991
                            32 C    0.104
    36   8 O    2.402 --    10 P    1.294    34 C    0.873
    37   6 C    3.988 --     7 C    1.413     2 C    1.401    74 H    0.965
                             4 C    0.102
    38   1 H    0.997 --     1 C    0.980
    39   1 H    0.995 --     1 C    0.960
    40   1 H    0.996 --     1 C    0.979
    41   1 H    0.996 --     3 C    0.966
    42   1 H    0.997 --     5 C    0.983
    43   1 H    0.996 --     5 C    0.977
    44   1 H    0.995 --     5 C    0.961
    45   1 H    0.997 --     6 C    0.966
    46   1 H    0.998 --    12 C    0.945
    47   1 H    0.995 --    13 C    0.981
    48   1 H    0.997 --    13 C    0.981
    49   1 H    0.996 --    13 C    0.980
    50   1 H    0.996 --    14 C    0.981
    51   1 H    0.998 --    14 C    0.978
    52   1 H    0.995 --    14 C    0.979
    53   1 H    0.995 --    15 C    0.955
    54   1 H    0.997 --    16 C    0.975
    55   1 H    0.995 --    16 C    0.979
    56   1 H    0.997 --    16 C    0.978
    57   1 H    0.997 --    17 C    0.984
    58   1 H    0.994 --    17 C    0.980
    59   1 H    0.997 --    17 C    0.979
    60   1 H    0.996 --    20 C    0.961
    61   1 H    0.995 --    21 C    0.968
    62   1 H    0.995 --    22 C    0.966
    63   1 H    0.998 --    26 C    0.979
    64   1 H    0.996 --    26 C    0.977
    65   1 H    0.995 --    27 C    0.965
    66   1 H    0.996 --    27 C    0.955
    67   1 H    0.998 --    28 C    0.979
    68   1 H    0.996 --    28 C    0.977
    69   1 H    0.996 --    29 C    0.955
    70   1 H    0.995 --    29 C    0.965
    71   1 H    0.995 --    31 C    0.966
    72   1 H    0.994 --    32 C    0.967
    73   1 H    0.996 --    33 C    0.963
    74   1 H    0.997 --    37 C    0.965
 ---------------------------------------------------------------------------

Topologies differ in total number of bonds
Writing topology from bond orders to xtbtopo.mol

molecular dipole:
                 x           y           z       tot (Debye)
 q only:       -0.012       0.494       0.589
   full:        0.166       0.448       0.520       1.795
molecular quadrupole (traceless):
                xx          xy          yy          xz          yz          zz
 q only:       19.611       7.800     -11.479     -14.156      -8.067      -8.132
  q+dip:       21.821       7.647     -12.272     -15.447     -10.333      -9.548
   full:       19.225       6.614      -9.877     -16.246      -6.772      -9.347

           -------------------------------------------------
          |                Geometry Summary                 |
           -------------------------------------------------

      molecular mass/u    :      550.7354705
   center of mass at/Å    :       -0.3405516      -0.0948248      -0.2669005
  moments of inertia/u·Å² :        0.3585699E+04   0.5869619E+04   0.6199852E+04
rotational constants/cm⁻¹ :        0.4701351E-02   0.2872015E-02   0.2719038E-02

 * 68 selected distances

     #   Z          #   Z                                           value/Å
     2   6 C        3   6 C                                       1.3897964
     3   6 C        4   6 C                                       1.3900358
     4   6 C        6   6 C                                       1.3892754
     6   6 C        7   6 C                                       1.3844421
     8  16 S        9  16 S                                       2.0418958
     9  16 S       10  15 P                                       2.1187919 (max)
    10  15 P       11   7 N                                       1.6367181
    11   7 N       12   6 C                                       1.4743511
    12   6 C       13   6 C                                       1.5266468
    12   6 C       14   6 C                                       1.5250899
    11   7 N       15   6 C                                       1.4724207
    15   6 C       16   6 C                                       1.5244354
    15   6 C       17   6 C                                       1.5242519
    10  15 P       18   8 O                                       1.5782715
    19   6 C       20   6 C                                       1.3880409
    20   6 C       21   6 C                                       1.3832201
    21   6 C       22   6 C                                       1.3881006
    22   6 C       23   6 C                                       1.3793411
    19   6 C       24   6 C                                       1.3791000
    23   6 C       24   6 C                                       1.3996855
    26   6 C       27   6 C                                       1.5345131
    28   6 C       29   6 C                                       1.5348743
    30   6 C       31   6 C                                       1.3795757
    31   6 C       32   6 C                                       1.3883433
    32   6 C       33   6 C                                       1.3835080
    33   6 C       34   6 C                                       1.3885186
    30   6 C       35   6 C                                       1.3984397
    34   6 C       35   6 C                                       1.3775569
    10  15 P       36   8 O                                       1.5745937
     2   6 C       37   6 C                                       1.3893245
     7   6 C       37   6 C                                       1.3832010
     1   6 C       38   1 H                                       1.0871611
     1   6 C       39   1 H                                       1.0898957
     1   6 C       40   1 H                                       1.0872385
     3   6 C       41   1 H                                       1.0804094
     5   6 C       42   1 H                                       1.0872969
     5   6 C       43   1 H                                       1.0879002
     5   6 C       44   1 H                                       1.0897185
     6   6 C       45   1 H                                       1.0791155
    12   6 C       46   1 H                                       1.0982459
    13   6 C       47   1 H                                       1.0865097
    13   6 C       48   1 H                                       1.0864905
    13   6 C       49   1 H                                       1.0863953
    14   6 C       50   1 H                                       1.0865578
    14   6 C       51   1 H                                       1.0876600
    14   6 C       52   1 H                                       1.0864056
    15   6 C       53   1 H                                       1.0919427
    16   6 C       54   1 H                                       1.0861916
    16   6 C       55   1 H                                       1.0870525
    16   6 C       56   1 H                                       1.0881086
    17   6 C       57   1 H                                       1.0871351
    17   6 C       58   1 H                                       1.0865722
    17   6 C       59   1 H                                       1.0854832
    20   6 C       60   1 H                                       1.0777958 (min)
    21   6 C       61   1 H                                       1.0785165
    22   6 C       62   1 H                                       1.0785993
    26   6 C       63   1 H                                       1.0916717
    26   6 C       64   1 H                                       1.0868127
    27   6 C       65   1 H                                       1.0893566
    27   6 C       66   1 H                                       1.0919851
    28   6 C       67   1 H                                       1.0917505
    28   6 C       68   1 H                                       1.0868704
    29   6 C       69   1 H                                       1.0920095
    29   6 C       70   1 H                                       1.0891681
    31   6 C       71   1 H                                       1.0785440
    32   6 C       72   1 H                                       1.0780045
    33   6 C       73   1 H                                       1.0790986
    37   6 C       74   1 H                                       1.0796207

 * 7 distinct bonds (by element types)

   Z      Z             #   av. dist./Å        max./Å        min./Å
   1 H    6 C          37     1.0861970     1.0982459     1.0777958
   6 C    6 C          24     1.4220549     1.5348743     1.3775569
   6 C    7 N           2     1.4733859     1.4743511     1.4724207
   7 N   15 P           1     1.6367181     1.6367181     1.6367181
   8 O   15 P           2     1.5764326     1.5782715     1.5745937
  15 P   16 S           1     2.1187919     2.1187919     2.1187919
  16 S   16 S           1     2.0418958     2.0418958     2.0418958


optimized geometry written to: xtbopt.xyz


           -------------------------------------------------
          | TOTAL ENERGY             -105.135648678480 Eh   |
          | GRADIENT NORM               0.000023210837 Eh/α |
          | HOMO-LUMO GAP               2.725320081710 eV   |
           -------------------------------------------------

------------------------------------------------------------------------
 * finished run on 2024/12/16 at 21:09:44.817     
------------------------------------------------------------------------
 total:
 * wall-time:     0 d,  0 h,  1 min, 43.599 sec
 *  cpu-time:     0 d,  0 h, 13 min, 39.033 sec
 * ratio c/w:     7.906 speedup
 SCF:
 * wall-time:     0 d,  0 h,  0 min,  2.014 sec
 *  cpu-time:     0 d,  0 h,  0 min, 16.028 sec
 * ratio c/w:     7.959 speedup
 ANC optimizer:
 * wall-time:     0 d,  0 h,  1 min, 41.424 sec
 *  cpu-time:     0 d,  0 h, 13 min, 21.789 sec
 * ratio c/w:     7.905 speedup

