74
 energy: -105.135648678480 gnorm: 0.000023210837 xtb: 6.7.1 (edcfbbe)
C            4.22480638756991        0.12421946685831       -4.52460328762764
C            3.31221789554774       -0.65245700991424       -3.62999596113707
C            3.82078582061176       -1.55147513255261       -2.70012561215276
C            2.99225420659220       -2.31189424749146       -1.88312047161729
C            3.57094990790792       -3.29048264204860       -0.91027962800275
C            1.61665543273086       -2.15107641971737       -1.99244310233803
C            1.10742726754147       -1.24587566710322       -2.90785446804528
S           -0.66819253739779       -1.01029153119077       -2.97449416634166
S           -0.78000481237078        0.96600188320430       -2.47339533940258
P           -0.45840743437206        0.96346521276439       -0.37915391673543
N            0.80021114821462        1.82920253418566        0.20840352761784
C            2.10702265184974        1.45085825270118       -0.35976023712521
C            3.18372592988281        1.48244547910157        0.72207261910024
C            2.50719752992393        2.30412122182243       -1.55880194423129
C            0.63150445877027        3.20460893130133        0.70621622095633
C           -0.23359890570387        4.06118668424925       -0.21126589713081
C            0.09597768033325        3.17433745667763        2.13297407807283
O           -0.25982449083469       -0.57940955404975       -0.11261522326345
C           -0.16023043801812       -0.98239443846359        1.24515604323655
C            1.10283129190489       -1.19118009892341        1.78157070123436
C            1.23939241034836       -1.49826376064817        3.12334125497866
C            0.12521325813542       -1.54535118471669        3.94990682433775
C           -1.12550881878819       -1.36205216439123        3.39793111388178
C           -1.28665557433192       -1.12733519330961        2.02750828630644
C           -2.74967808608110       -1.15993077637553        1.67780925980310
C           -3.38590785060192       -0.74167710516966        3.02625058737927
C           -2.45489765377845       -1.34167111502396        4.08830390311175
C           -3.20175376226060       -2.59264298314160        1.29496929615836
C           -4.55575264898418       -2.39370751535606        0.60002308554720
C           -4.41812910693669       -1.03414477244668       -0.01396247844712
C           -5.17723004496458       -0.45237832233704       -1.00821706620525
C           -4.82445046432053        0.80503843118344       -1.47932897726176
C           -3.69320515615135        1.44169503687051       -1.00074101155055
C           -2.94166761870390        0.84598467952088        0.00340248418516
C           -3.31368244906748       -0.37119947730192        0.53040364478908
O           -1.72578627847537        1.46013649495788        0.41230883796834
C            1.93460701319168       -0.50367131405647       -3.73135367525679
H            3.77550133761616        1.06913676881700       -4.81985778511619
H            4.42218892329412       -0.44917636552842       -5.43021342253746
H            5.17867147808132        0.31608313263591       -4.03940540257067
H            4.89132723390439       -1.67023730245793       -2.61574030467791
H            2.85132036476243       -3.55098393985511       -0.13795411288119
H            4.46879060279912       -2.89059369502180       -0.44391329203403
H            3.85040867959155       -4.20469440278513       -1.43335316829622
H            0.94500426244827       -2.72418203175906       -1.37202016301755
H            1.99073126258203        0.41545120792631       -0.70696668337780
H            4.05957738024001        0.94256315930118        0.37291030981729
H            2.82530598809283        1.01768925524851        1.63640197796877
H            3.48629348894876        2.50099663906697        0.94848154869589
H            2.66865921416802        3.33946407807920       -1.27139451803193
H            1.74382994871529        2.26966457965959       -2.33280890712101
H            3.43357712125411        1.91780384657397       -1.97456239130926
H            1.63701709606210        3.62971879216540        0.72997605593829
H           -1.27746149826453        3.76832193698957       -0.14498566652120
H           -0.15773754233087        5.10417977247573        0.08553953136613
H            0.09421479170645        3.97353244497760       -1.24511069436626
H            0.71888392291729        2.53758145738150        2.75618523913695
H            0.10443997933350        4.17954278593248        2.54544176240575
H           -0.92219458268386        2.79896469559093        2.15931808085012
H            1.96430001452086       -1.12384391524095        1.13738052832229
H            2.22292743443981       -1.67093883544465        3.53082112061075
H            0.23582268017406       -1.72637334066694        5.00743828751911
H           -3.38270346373550        0.34735504251637        3.10205072564365
H           -4.41221264697349       -1.08714739100235        3.11850193809507
H           -2.42979354565586       -0.75099074602588        5.00327061035611
H           -2.75834726756399       -2.35509781391223        4.35907306969813
H           -2.48501632654979       -3.01755448585702        0.58952148392631
H           -3.26090348537934       -3.24851424490791        2.15962022155598
H           -5.37842948498926       -2.40548443203490        1.31804028248322
H           -4.75811882993807       -3.16062517147167       -0.14641663846849
H           -6.02587191644108       -0.97232054444658       -1.42381771986069
H           -5.40932975978266        1.27700175875752       -2.25215511740771
H           -3.37852536536205        2.39162578526787       -1.40455016808559
H            1.50963935110282        0.18934217939298       -4.44178692348440
