71
 energy: -101.942037517241 gnorm: 0.111601396000 xtb: 6.7.1 (edcfbbe)
C            2.57165100000000        4.42270900000000       -0.32524100000000
C            2.36979800000000        3.39650600000000       -1.39987100000000
C            1.83359100000000        3.76039300000000       -2.63912500000000
C            1.67298500000000        2.80786500000000       -3.64539900000000
C            2.05457100000000        1.48416500000000       -3.42363800000000
C            2.59608300000000        1.10290500000000       -2.19234300000000
S            3.12418200000000       -0.57598200000000       -1.88407100000000
S            1.41661800000000       -1.65891400000000       -2.24566400000000
P            0.40334100000000       -1.46392400000000       -0.40913500000000
N            0.62048000000000       -2.80514600000000        0.53735300000000
C           -0.36799100000000       -3.89009600000000        0.61891400000000
C           -0.81718800000000       -4.39527400000000       -0.75400800000000
C           -1.56373100000000       -3.47034500000000        1.47816300000000
C            1.97493300000000       -3.17055600000000        0.98748100000000
C            2.01703300000000       -3.59890300000000        2.46244100000000
C            2.64144300000000       -4.24609100000000        0.12239400000000
O           -1.19110200000000       -1.23582700000000       -0.64391900000000
C           -1.58415600000000       -0.20002500000000       -1.43353800000000
C           -1.78367000000000       -0.41749100000000       -2.79793600000000
C           -2.04737100000000        0.65902000000000       -3.65537300000000
C           -2.10008700000000        1.95938200000000       -3.15602800000000
C           -1.92627800000000        2.14855300000000       -1.79344400000000
C           -1.72606400000000        1.06927200000000       -0.91558000000000
C           -1.73234800000000        1.55307600000000        0.50552400000000
C           -1.29877100000000        3.02730000000000        0.28094200000000
C           -1.92735500000000        3.45119400000000       -1.05544200000000
C           -3.15018900000000        1.48730100000000        1.13600600000000
C           -2.94411800000000        1.68444200000000        2.64408500000000
C           -1.59812700000000        1.05275800000000        2.82800000000000
C           -1.01592800000000        0.67643800000000        4.02871700000000
C            0.25241100000000        0.10298400000000        3.99469200000000
C            0.88947000000000       -0.12670800000000        2.76787000000000
C            0.26921800000000        0.21607900000000        1.56586400000000
C           -0.93872700000000        0.88494000000000        1.59480300000000
O            0.87852000000000       -0.13483500000000        0.40174800000000
C            2.76185300000000        2.06654500000000       -1.19034300000000
H            1.82358800000000        5.21877600000000       -0.40047000000000
H            3.56946400000000        4.86499200000000       -0.41156200000000
H            2.46570100000000        3.97422800000000        0.66852000000000
H            1.53660600000000        4.78921700000000       -2.82886700000000
H            1.25365800000000        3.09807500000000       -4.60571700000000
H            1.92635800000000        0.75588600000000       -4.22071300000000
H            0.06028200000000       -4.76109300000000        1.12522500000000
H           -1.47665000000000       -5.26328300000000       -0.64064500000000
H           -1.37051500000000       -3.64206100000000       -1.32077800000000
H            0.04003100000000       -4.71316500000000       -1.35595100000000
H           -2.20903100000000       -4.33423700000000        1.67678100000000
H           -2.18482900000000       -2.70833900000000        1.00113600000000
H           -1.23230700000000       -3.08175600000000        2.44777000000000
H            2.59736300000000       -2.27018100000000        0.91859300000000
H            1.60899400000000       -4.60214600000000        2.62045900000000
H            1.45942300000000       -2.90864500000000        3.10115100000000
H            3.05318400000000       -3.61230200000000        2.82011200000000
H            2.14784300000000       -5.21891500000000        0.22000900000000
H            3.68793700000000       -4.37840300000000        0.42213800000000
H            2.64300300000000       -3.97702400000000       -0.93648200000000
H           -1.70564200000000       -1.42169600000000       -3.20588900000000
H           -2.18488100000000        0.47959700000000       -4.71855100000000
H           -2.27412400000000        2.79983100000000       -3.82108500000000
H           -0.20461800000000        3.08523300000000        0.19884300000000
H           -1.58706800000000        3.70502100000000        1.09188900000000
H           -2.95137300000000        3.81422000000000       -0.92299300000000
H           -1.32134300000000        4.21330300000000       -1.55292000000000
H           -3.85295600000000        2.22180900000000        0.72824800000000
H           -3.59363200000000        0.49618200000000        0.95945700000000
H           -2.90846900000000        2.74473700000000        2.91318500000000
H           -3.72467200000000        1.17881900000000        3.21951200000000
H           -1.52765700000000        0.83299500000000        4.97337000000000
H            0.74318100000000       -0.18784400000000        4.92024100000000
H            1.86863500000000       -0.59502700000000        2.75331400000000
H            3.18953800000000        1.77948400000000       -0.23223400000000
71
 energy: -101.956519872490 gnorm: 0.056725018499 xtb: 6.7.1 (edcfbbe)
C            2.56485614699170        4.41647545519554       -0.32543183956557
C            2.36977097654415        3.39358930261312       -1.40200429481031
C            1.82960296192047        3.74767745718765       -2.63545017614908
C            1.66801318940919        2.80066401457656       -3.63618466901357
C            2.05127417391166        1.48707572946735       -3.42321139412052
C            2.59171192221172        1.12569994345353       -2.19652590536175
S            3.14945540743683       -0.54154922583202       -1.89008331871622
S            1.40037319189898       -1.54872221460765       -2.22832480901899
P            0.38717312180257       -1.49768486092536       -0.37880794666030
N            0.60089714374279       -2.82705439259300        0.56996029889857
C           -0.39405634935493       -3.90329709359776        0.62606190115872
C           -0.82088855021040       -4.39273748263080       -0.75640962376650
C           -1.57936321912336       -3.47163879099770        1.48382548222244
C            1.97501719761041       -3.16551265087922        0.99002656399073
C            2.00816439488075       -3.59224721847924        2.46094944956347
C            2.63126332457503       -4.23813973406184        0.11739430127152
O           -1.19061405762115       -1.27083787521975       -0.62470230926860
C           -1.57195247699809       -0.20819505233805       -1.43529012262290
C           -1.76067981732449       -0.41727070362034       -2.80081218127729
C           -2.04419994763471        0.64762400435165       -3.64592939064409
C           -2.09992043898975        1.94295384283239       -3.14956597917079
C           -1.93543671607417        2.13819442518542       -1.79286640969183
C           -1.71921557328929        1.06670654311142       -0.91759224588903
C           -1.73406982054101        1.55684361644611        0.50584938608597
C           -1.29555161807628        3.03117882610700        0.29934559008749
C           -1.91907159080161        3.43507567932808       -1.04482274803937
C           -3.15811207276898        1.49536724284741        1.11953416706171
C           -2.93331839129097        1.67807002114443        2.62663641055023
C           -1.58174485167246        1.06377993159466        2.82543424790991
C           -1.00057781476314        0.67935685983922        4.01740295964084
C            0.26235086607062        0.10600193573616        3.98345921696448
C            0.88587514031212       -0.14170446236719        2.76808757495413
C            0.27650111970593        0.21102990127596        1.56540289046408
C           -0.93457847737340        0.88415001198361        1.59412702590739
O            0.89381485741071       -0.16113414554864        0.37859014467622
C            2.74951464446532        2.07109425068309       -1.19138812616454
H            1.83085924332079        5.21762933796120       -0.40945024402914
H            3.55786133071433        4.85812058137316       -0.41067391951570
H            2.47636116072003        3.97034048553297        0.66541844420346
H            1.53928021596210        4.77319831904158       -2.82200812056880
H            1.25700420125128        3.08886017496155       -4.59343809183082
H            1.92848324844441        0.75451728483159       -4.21023274570587
H            0.08045309294987       -4.74806478370831        1.13075073368270
H           -1.47496558937064       -5.25681732676098       -0.64326405424449
H           -1.36773212479657       -3.62964254706412       -1.30790421648423
H            0.04176186076381       -4.70027634810607       -1.34809809443501
H           -2.21709796699318       -4.33327199456238        1.67701797008320
H           -2.17786658924886       -2.70640231576796        0.99376832402000
H           -1.23312715957506       -3.08103969131565        2.44105150864023
H            2.57323110734685       -2.24832814739977        0.89817741493398
H            1.60669975778565       -4.59355045004906        2.60789763429963
H            1.44751873339738       -2.90365710421257        3.09064788587559
H            3.04269350902898       -3.60301023355178        2.80331727464149
H            2.13926988770319       -5.20404659361628        0.22457747377136
H            3.66983938535543       -4.36334454487596        0.42350609242472
H            2.62763751060114       -3.96454639269341       -0.93667028752632
H           -1.68505973757733       -1.41804834208417       -3.20229181432629
H           -2.18739201954569        0.46734838094781       -4.70181572296421
H           -2.26486332229144        2.78098786506356       -3.81199524388752
H           -0.20519473538757        3.07190893034789        0.21252058246857
H           -1.59228354395195        3.68991586564285        1.11561500152714
H           -2.93667801421853        3.81063437455799       -0.91904822373634
H           -1.33147701909505        4.19935439205787       -1.55372913588679
H           -3.84313058767946        2.23291226413552        0.70189260088467
H           -3.58455634717072        0.50317222267290        0.93957909793455
H           -2.91154048238403        2.73354854599403        2.90518030197194
H           -3.70557755479648        1.18502738129927        3.21756379181076
H           -1.51770669223083        0.82252108171536        4.95581363520808
H            0.75148614594845       -0.18122893300199        4.90355795023835
H            1.86029071964475       -0.60676759997763        2.74910514819733
H            3.18324237838219        1.78116076934943       -0.24302807313282
71
 energy: -101.960923722234 gnorm: 0.026973924925 xtb: 6.7.1 (edcfbbe)
C            2.55847433329049        4.42134184928225       -0.32326944032940
C            2.36533019000496        3.40072813283955       -1.39878175504072
C            1.82316982185211        3.74498232759794       -2.63096589296728
C            1.66476747898724        2.80058663566473       -3.62924647225432
C            2.05467337370836        1.49318916006313       -3.42174881480172
C            2.59893721968596        1.15464998410256       -2.19649523343661
S            3.08713570965158       -0.52821076368095       -1.86180010403111
S            1.35807456682983       -1.53948191989109       -2.22983517280407
P            0.38045813752327       -1.51159205812636       -0.35755421224254
N            0.57956220990189       -2.83068748327020        0.59472878321181
C           -0.41630218778902       -3.90936919884866        0.63270371561234
C           -0.82906969207493       -4.38837829093601       -0.75426884475900
C           -1.60000043210472       -3.47623735969635        1.48572586992044
C            1.96721180710909       -3.15205075888528        0.99048954048407
C            2.00676473824942       -3.57768199176225        2.45784650812077
C            2.61683083041448       -4.21963521929113        0.11132875880595
O           -1.17799291031593       -1.30152573132167       -0.60679591739158
C           -1.55347299030361       -0.21689218385494       -1.43527405582304
C           -1.73394652066280       -0.42615120775164       -2.79886008019257
C           -2.03025901623631        0.63114434609801       -3.63667474916075
C           -2.08987125326696        1.92533302342202       -3.14329715002108
C           -1.92876815478892        2.12692734182172       -1.79054496046910
C           -1.70290603015172        1.05836545304193       -0.91835654448954
C           -1.72456920081632        1.55129916032718        0.50367994693526
C           -1.28614247765086        3.02506442631288        0.30655985819187
C           -1.90926448173232        3.42205682888169       -1.03784317770608
C           -3.15118801484134        1.49321906806254        1.10717234936879
C           -2.92206386455806        1.67281212200862        2.61269142067254
C           -1.56809637047469        1.06480422874461        2.81870561452484
C           -0.98692272233586        0.67599744373649        4.00550195138609
C            0.27408729185580        0.10195279789147        3.97193352550385
C            0.89095487885049       -0.15569063634194        2.76410012309375
C            0.28684279036532        0.20503725084953        1.56431235128599
C           -0.92461492104770        0.87738931432079        1.59029374878470
O            0.91375927613318       -0.17770848611967        0.35536697580956
C            2.74907184530445        2.08548939934851       -1.18804552362537
H            1.83193697025830        5.22380754875270       -0.41199730810783
H            3.55079939872021        4.86048402298816       -0.41129909046916
H            2.48305343461216        3.97163274169017        0.66339516155967
H            1.53419779557983        4.76766144850677       -2.81476388416535
H            1.24956614438714        3.08399355463089       -4.58212214437625
H            1.93140277021589        0.75018492494155       -4.19456621528794
H            0.08714862325811       -4.73687725639913        1.13813354663522
H           -1.47980872994279       -5.25152560770990       -0.65092296485569
H           -1.36936969867443       -3.61498092522012       -1.29195972431141
H            0.04075688401597       -4.68262203548331       -1.33654191849534
H           -2.23892800866466       -4.33148758356509        1.67747089409942
H           -2.17992202109938       -2.70803637003710        0.98497822253409
H           -1.24567313659645       -3.08347143303913        2.43479183163193
H            2.53875775407456       -2.21929783906204        0.87670871114193
H            1.60798613497219       -4.57809781972351        2.59277758954171
H            1.43837842080432       -2.89310396757416        3.07924425244680
H            3.03863642645038       -3.58664720462925        2.79555392509911
H            2.12254024251311       -5.17983330996698        0.22373814568962
H            3.65150688997450       -4.34207723332366        0.41793748838795
H            2.60446577926175       -3.93778739500616       -0.93815138402328
H           -1.64483939622805       -1.42514843468276       -3.19387093934907
H           -2.18202469061114        0.44806710769346       -4.68714409541036
H           -2.26044673829858        2.76021727316740       -3.80349438402409
H           -0.19874406414071        3.06098024303682        0.22457684289643
H           -1.59702656173733        3.66566469716530        1.12654661807301
H           -2.92422205701968        3.80453799985574       -0.91335947020503
H           -1.33497015442281        4.18846145788442       -1.55606362634217
H           -3.81570382269579        2.24001851147626        0.68316018840645
H           -3.57572571607648        0.50583716523081        0.91952799242635
H           -2.91067889817043        2.72737168348366        2.89471632182943
H           -3.68849083763044        1.18729690800380        3.21500009648012
H           -1.50392891428410        0.81950252302519        4.94042930100889
H            0.76438001892811       -0.17808214343308        4.88931424790199
H            1.85959485745279       -0.62563454769392        2.73729408871862
H            3.17474164224778        1.78791229037718       -0.24252625725176
71
 energy: -101.962419611545 gnorm: 0.013945597018 xtb: 6.7.1 (edcfbbe)
C            2.55536040985572        4.42897592185249       -0.32211756734886
C            2.36011614815172        3.40569525638306       -1.39426350121234
C            1.81409882326535        3.74547381024455       -2.62667245835652
C            1.65534365282410        2.79983678673747       -3.62395348631346
C            2.04260326542830        1.49020385155377       -3.41420619523033
C            2.58095198258638        1.15600851716750       -2.18456548889703
S            3.11242367245366       -0.51857906825918       -1.86576270067819
S            1.35740345137613       -1.49732766981179       -2.21582075464174
P            0.36427865631083       -1.51157428571313       -0.34857132190705
N            0.55722532208742       -2.82398035561141        0.60771619514556
C           -0.43185539510649       -3.91237206091264        0.64049338724565
C           -0.83666979458011       -4.38334288154225       -0.75047580662418
C           -1.62106043693596       -3.48189289526057        1.48732725345477
C            1.95149012749815       -3.13551451363604        0.99009524123651
C            2.00752030285265       -3.56051974504606        2.45603766908485
C            2.59965525651775       -4.19532128667502        0.10288825092405
O           -1.18228639615965       -1.31683024836066       -0.59198665936297
C           -1.55073103344335       -0.22495448146435       -1.43158480965269
C           -1.71674257186683       -0.44146229318797       -2.79413708349282
C           -2.01326214779753        0.61427713490906       -3.63370208565930
C           -2.07950277990237        1.91010572133677       -3.14220850085086
C           -1.91564400017795        2.11693375824950       -1.79025014415186
C           -1.69254934613949        1.04840240118035       -0.91740716318542
C           -1.71223056859603        1.54200610969171        0.50134701498100
C           -1.27480333845021        3.01534498922325        0.30594943886270
C           -1.89757113829849        3.41271542122289       -1.03756036720372
C           -3.13896121512517        1.48781876013224        1.10188557143085
C           -2.91225194804624        1.66736253786680        2.60706713134317
C           -1.55799182934840        1.05959074909298        2.81445077771186
C           -0.97314275765738        0.67228158010467        4.00016830964454
C            0.28763399789519        0.09467134322745        3.96513063276536
C            0.90148135667474       -0.16827473064721        2.75652009969361
C            0.29251102091890        0.19615678535734        1.56225510793862
C           -0.91501930236906        0.86871401321232        1.58641827340381
O            0.91887935396963       -0.18692473829595        0.34044761546555
C            2.74034626842629        2.08855899494210       -1.17916333521133
H            1.83008546113885        5.23217543552373       -0.41060941493875
H            3.54928935945063        4.86603523745126       -0.41387194568786
H            2.48308352488535        3.97917001959183        0.66440045798337
H            1.51925217338062        4.76702157774526       -2.80818820052072
H            1.23719591531819        3.08245799884390       -4.57625042022414
H            1.93194314280905        0.74445488828181       -4.18542668111801
H            0.07519599601946       -4.73644871786141        1.14681787706741
H           -1.48582020965734       -5.24913390838085       -0.66032293624655
H           -1.37584728966855       -3.60533338709349       -1.28179632822011
H            0.03815364834417       -4.66720544466938       -1.32992527025734
H           -2.26507215894394       -4.33372736659845        1.67638146786707
H           -2.19473775917447       -2.71285173186765        0.98141267684313
H           -1.27091487031020       -3.08871074241353        2.43739592546747
H            2.50766107201729       -2.19536468686164        0.86539328793256
H            1.61469692223991       -4.56399842361547        2.58674458107990
H            1.43307724494809       -2.88198494150988        3.07815969540714
H            3.03989025627983       -3.56317407026429        2.79160253850334
H            2.10498624265242       -5.15543606696281        0.21395611092268
H            3.63592616004124       -4.31728150300804        0.40375507072821
H            2.57968784561961       -3.90607644132336       -0.94442885123578
H           -1.61071436871184       -1.44126908895806       -3.18448922448511
H           -2.16515991100225        0.42805713273255       -4.68353200044023
H           -2.25630593534370        2.74256389161239       -3.80371000848526
H           -0.18776833469212        3.05505625803533        0.23126212262159
H           -1.59411569711433        3.64888567525997        1.12759681951119
H           -2.91268769134069        3.79603028820948       -0.91120099502523
H           -1.32500105054361        4.17871736049193       -1.55849133305358
H           -3.79225102175113        2.24278368276949        0.67538612928594
H           -3.57084408991178        0.50557703589017        0.90738768331906
H           -2.90414891026991        2.72308011444708        2.88743918756881
H           -3.67675955166484        1.18098178157130        3.21128880354675
H           -1.48735621537528        0.81946223322647        4.93579826810183
H            0.77997183341960       -0.18284522809616        4.88225851802929
H            1.86740417559538       -0.64408402396939        2.72246698538952
H            3.17095902222360        1.79014997250743       -0.23645413758815
71
 energy: -101.963332528236 gnorm: 0.008310770035 xtb: 6.7.1 (edcfbbe)
C            2.55195304734701        4.44100880698864       -0.31968273096887
C            2.35062293851361        3.41349096110661       -1.38704922740218
C            1.80045741286473        3.74921442001863       -2.61968123654825
C            1.64147277110656        2.80108467787674       -3.61566527104422
C            2.03299774076001        1.49142984582540       -3.40344243983582
C            2.57012777332444        1.15890710439306       -2.17135344657216
S            3.08418731578551       -0.52260431468178       -1.84646335088872
S            1.34017181413756       -1.51409415701206       -2.22018234415944
P            0.35794082001868       -1.50601770521402       -0.34775962409729
N            0.53946834226593       -2.81256374020824        0.61746335044510
C           -0.44456617330474       -3.90838302676512        0.64827810626748
C           -0.84300438191598       -4.37646860690509       -0.74565908740834
C           -1.64207199692754       -3.48424817908366        1.48899431889327
C            1.93604626179259       -3.11847278299288        0.99160821447337
C            2.00558440800418       -3.54408720042415        2.45634780112846
C            2.58122757120149       -4.16966128803390        0.09331882439999
O           -1.18174317815875       -1.32365860470807       -0.58434721419665
C           -1.54575473556806       -0.23177126574761       -1.43134999760008
C           -1.69978572601257       -0.45771976267645       -2.79273917890428
C           -1.99467863306307        0.59749649164231       -3.63618060311393
C           -2.06818609761259        1.89470038759270       -3.14600387207461
C           -1.90144679471119        2.10691852857605       -1.79416057962274
C           -1.68187511534960        1.03905257394860       -0.91872880104463
C           -1.69878582928266        1.53232666532624        0.49784850022422
C           -1.26146934568738        3.00574698024737        0.30300607565067
C           -1.88123559230458        3.40311634909797       -1.04213379992810
C           -3.12579283612573        1.48286988527324        1.09763273855724
C           -2.90018622063623        1.65897137531893        2.60354674328559
C           -1.54559356029571        1.05182734042722        2.81113446341723
C           -0.95589613389081        0.66763040444201        3.99649072220237
C            0.30408492166227        0.08599182122661        3.95965089119491
C            0.91671876229178       -0.17890340781328        2.74867236247521
C            0.30160445284270        0.18823752193295        1.55935800921579
C           -0.90304425045518        0.86033625112926        1.58195734131772
O            0.92563718901732       -0.19119677556826        0.33013322725222
C            2.73152356517992        2.09525200811598       -1.16790140713604
H            1.82623767994648        5.24477307719822       -0.40637173468331
H            3.54674009477406        4.87673757053888       -0.41725384050034
H            2.48206511474799        3.99451081146643        0.66927685717752
H            1.50388571525591        4.77086436077940       -2.80294005902966
H            1.22261892895213        3.08259512301508       -4.56914943222300
H            1.92370961174507        0.74202722309797       -4.17164528331672
H            0.05871578989744       -4.73272448430551        1.15648887640922
H           -1.48904763661470       -5.24659040752741       -0.66505467566028
H           -1.38579402125535       -3.59934093064941       -1.27501226349573
H            0.03476078125257       -4.65262031517505       -1.32527429507010
H           -2.28760564733181       -4.33798386831571        1.67127364526707
H           -2.21676927571181       -2.71664416211921        0.98135067391298
H           -1.30271041751600       -3.09307677109026        2.44469966729473
H            2.48450144177741       -2.17553053425796        0.86340006697247
H            1.62345871127124       -4.55269156519019        2.58731228232536
H            1.42677652217654       -2.87282206148884        3.08373841939398
H            3.04021567004542       -3.53574527301354        2.78710034190409
H            2.08770540086084       -5.13178465582737        0.19905290712231
H            3.62056560125862       -4.29220731035169        0.38555985214234
H            2.55388172550214       -3.87189473830851       -0.95219796873342
H           -1.58314351540897       -1.45902053334242       -3.17838187806529
H           -2.13938629284489        0.40875481374946       -4.68723253849498
H           -2.24735881756076        2.72462748972441       -3.81076918145636
H           -0.17371543740714        3.04935702958849        0.23440158215932
H           -1.58454556667156        3.63825026947197        1.12505778883369
H           -2.89644849076126        3.78654828625891       -0.91513406818265
H           -1.30547403137657        4.16703568456489       -1.56258799622120
H           -3.77410747828705        2.24346278975571        0.67125084156373
H           -3.56565413507187        0.50449208695714        0.89824139956431
H           -2.89321579469378        2.71495931708531        2.88361368145223
H           -3.66409777683449        1.16862276189000        3.20546964692983
H           -1.46645795298255        0.81789791638351        4.93427626873949
H            0.79783277820861       -0.19162921822738        4.87695175450014
H            1.88194973743397       -0.65686100981263        2.71020626923267
H            3.16320247640934        1.79788964480779       -0.22468008561676
71
 energy: -101.963837857831 gnorm: 0.008732648138 xtb: 6.7.1 (edcfbbe)
C            2.54719733400243        4.45263230064782       -0.31679419167075
C            2.33747921271120        3.41970941686203       -1.37817063606641
C            1.78361278967007        3.75303695425800       -2.61011366852348
C            1.62252455589504        2.80229212620105       -3.60396283281286
C            2.01535974044424        1.49331206634924       -3.38839698227855
C            2.55563441469414        1.16033756984643       -2.15705144162693
S            3.07247143250529       -0.52212432455196       -1.83531270569878
S            1.33969965800562       -1.53173690208329       -2.21663247857372
P            0.34899556310496       -1.50257345555525       -0.34963864381617
N            0.52222282183497       -2.80183153080967        0.62836808370360
C           -0.45716118333690       -3.90190875497420        0.65589176774855
C           -0.85005055964787       -4.37139144284626       -0.73970138369737
C           -1.66346591980571       -3.48609631745674        1.49003267449103
C            1.92019079821800       -3.10468084046979        0.99520680212695
C            2.00352423883719       -3.53389747745604        2.45797003513000
C            2.56431863452009       -4.14634831093352        0.08547803699024
O           -1.18911507611418       -1.32510225494234       -0.58078021576799
C           -1.54640574408056       -0.23804620793768       -1.43357979212776
C           -1.69021519608478       -0.47173722399319       -2.79432159054213
C           -1.97459943697880        0.58397229321847       -3.64274479672136
C           -2.05000695291834        1.88210707231185       -3.15423983960685
C           -1.88588616069405        2.09918517882480       -1.80211682273453
C           -1.67486923697629        1.03214709006086       -0.92252263018468
C           -1.68776818231596        1.52476432363507        0.49347803763817