      -----------------------------------------------------------      
     |                   =====================                   |     
     |                           x T B                           |     
     |                   =====================                   |     
     |                         S. Grimme                         |     
     |          Mulliken Center for Theoretical Chemistry        |     
     |                    University of Bonn                     |     
      -----------------------------------------------------------      

   * xtb version 6.7.1 (edcfbbe) compiled by 'conda@3ef47c1a292c' on 2024-11-25

   xtb is free software: you can redistribute it and/or modify it under
   the terms of the GNU Lesser General Public License as published by
   the Free Software Foundation, either version 3 of the License, or
   (at your option) any later version.
   
   xtb is distributed in the hope that it will be useful,
   but WITHOUT ANY WARRANTY; without even the implied warranty of
   MERCHANTABILITY or FITNESS FOR A PARTICULAR PURPOSE.  See the
   GNU Lesser General Public License for more details.
   
   Cite this work as:
   * C. Bannwarth, E. Caldeweyher, S. Ehlert, A. Hansen, P. Pracht,
     J. Seibert, S. Spicher, S. Grimme, WIREs Comput. Mol. Sci., 2020, 11,
     e01493. DOI: 10.1002/wcms.1493
   
   for GFN2-xTB:
   * C. Bannwarth, S. Ehlert and S. Grimme., J. Chem. Theory Comput., 2019,
     15, 1652-1671. DOI: 10.1021/acs.jctc.8b01176
   for GFN1-xTB:
   * S. Grimme, C. Bannwarth, P. Shushkov, J. Chem. Theory Comput., 2017,
     13, 1989-2009. DOI: 10.1021/acs.jctc.7b00118
   for GFN0-xTB:
   * P. Pracht, E. Caldeweyher, S. Ehlert, S. Grimme, ChemRxiv, 2019, preprint.
     DOI: 10.26434/chemrxiv.8326202.v1
   for GFN-FF:
   * S. Spicher and S. Grimme, Angew. Chem. Int. Ed., 2020, 59, 15665-15673.
     DOI: 10.1002/anie.202004239
   
   for ALPB and GBSA implicit solvation:
   * S. Ehlert, M. Stahn, S. Spicher, S. Grimme, J. Chem. Theory Comput.,
     2021, 17, 4250-4261. DOI: 10.1021/acs.jctc.1c00471
   
   for ddCOSMO and CPCM-X implicit solvation:
   * M. Stahn, S. Ehlert, S. Grimme, J. Phys. Chem. A,
     2023, XX, XXXX-XXXX. DOI: 10.1021/acs.jpca.3c04382
   
   for DFT-D4:
   * E. Caldeweyher, C. Bannwarth and S. Grimme, J. Chem. Phys., 2017,
     147, 034112. DOI: 10.1063/1.4993215
   * E. Caldeweyher, S. Ehlert, A. Hansen, H. Neugebauer, S. Spicher,
     C. Bannwarth and S. Grimme, J. Chem. Phys., 2019, 150, 154122.
     DOI: 10.1063/1.5090222
   * E. Caldeweyher, J.-M. Mewes, S. Ehlert and S. Grimme, Phys. Chem. Chem. Phys.
     2020, 22, 8499-8512. DOI: 10.1039/D0CP00502A
   
   for sTDA-xTB:
   * S. Grimme and C. Bannwarth, J. Chem. Phys., 2016, 145, 054103.
     DOI: 10.1063/1.4959605
   
   in the mass-spec context:
   * V. Asgeirsson, C. Bauer and S. Grimme, Chem. Sci., 2017, 8, 4879.
     DOI: 10.1039/c7sc00601b
   * J. Koopman and S. Grimme, ACS Omega 2019, 4, 12, 15120-15133.
     DOI: 10.1021/acsomega.9b02011
   
   for metadynamics refer to:
   * S. Grimme, J. Chem. Theory Comput., 2019, 155, 2847-2862
     DOI: 10.1021/acs.jctc.9b00143
   
   for SPH calculations refer to:
   * S. Spicher and S. Grimme, J. Chem. Theory Comput., 2021, 17, 1701-1714
     DOI: 10.1021/acs.jctc.0c01306
   
   for ONIOM refer to:
   * C. Plett, A. Katbashev, S. Ehlert, S. Grimme, M. Bursch,
     Phys. Chem. Chem. Phys., 2023, 25, 17860-17868. DOI: 10.1039/D3CP02178E
   
   for DIPRO refer to:
   * J. Kohn, N. Gildemeister, S. Grimme, D. Fazzi, A. Hansen,
     J. Chem. Phys., 2023, just accepted.
   
   for PTB refer to:
   * S. Grimme, M. Mueller, A. Hansen, J. Chem. Phys., 2023, 158, 124111.
     DOI: 10.1063/5.0137838
   
   with help from (in alphabetical order)
   P. Atkinson, C. Bannwarth, F. Bohle, G. Brandenburg, E. Caldeweyher
   M. Checinski, S. Dohm, S. Ehlert, S. Ehrlich, I. Gerasimov, C. Hölzer
   A. Katbashev, J. Kohn, J. Koopman, C. Lavigne, S. Lehtola, F. März, M. Müller,
   F. Musil, H. Neugebauer, J. Pisarek, C. Plett, P. Pracht, F. Pultar,
   J. Seibert, P. Shushkov, S. Spicher, M. Stahn, M. Steiner, T. Strunk,
   J. Stückrath, T. Rose, and J. Unsleber
   
 * started run on 2024/12/16 at 17:23:01.893     
   ID    Z sym.   atoms
    1    6 C      1-4, 6-9, 13-18, 20-40, 42
    2    7 N      5, 19, 41
    3   15 P      10
    4   34 Se     11
    5   16 S      12
    6    1 H      43-83

           -------------------------------------------------
          |                Calculation Setup                |
           -------------------------------------------------

          program call               : xtb --gfn2 --opt extreme -P 8 --charge 1 molecule.xyz
          hostname                   : node05
          coordinate file            : molecule.xyz
          omp threads                :                     8


           -------------------------------------------------
          |                 G F N 2 - x T B                 |
           -------------------------------------------------

        Reference                      10.1021/acs.jctc.8b01176
      * Hamiltonian:
        H0-scaling (s, p, d)           1.850000    2.230000    2.230000
        zeta-weighting                 0.500000
      * Dispersion:
        s8                             2.700000
        a1                             0.520000
        a2                             5.000000
        s9                             5.000000
      * Repulsion:
        kExp                           1.500000    1.000000
        rExp                           1.000000
      * Coulomb:
        alpha                          2.000000
        third order                    shell-resolved
        anisotropic                    true
        a3                             3.000000
        a5                             4.000000
        cn-shift                       1.200000
        cn-exp                         4.000000
        max-rad                        5.000000


          ...................................................
          :                      SETUP                      :
          :.................................................:
          :  # basis functions                 227          :
          :  # atomic orbitals                 224          :
          :  # shells                          128          :
          :  # electrons                       216          :
          :  max. iterations                   250          :
          :  Hamiltonian                  GFN2-xTB          :
          :  restarted?                      false          :
          :  GBSA solvation                  false          :
          :  PC potential                    false          :
          :  electronic temp.          300.0000000     K    :
          :  accuracy                    1.0000000          :
          :  -> integral cutoff          0.2500000E+02      :
          :  -> integral neglect         0.1000000E-07      :
          :  -> SCF convergence          0.1000000E-05 Eh   :
          :  -> wf. convergence          0.1000000E-03 e    :
          :  Broyden damping             0.4000000          :
          :  net charge                          1          :
          :  unpaired electrons                  0          :
          ...................................................

 iter      E             dE          RMSdq      gap      omega  full diag
   1   -116.7176058 -0.116718E+03  0.480E+00    0.25       0.0  T
   2   -116.9229622 -0.205356E+00  0.299E+00    1.51       1.0  T
   3   -116.9102568  0.127055E-01  0.153E+00    1.91       1.0  T
   4   -116.9556668 -0.454100E-01  0.624E-01    2.05       1.0  T
   5   -116.9666002 -0.109334E-01  0.335E-01    2.02       1.0  T
   6   -116.9690714 -0.247124E-02  0.180E-01    2.04       1.0  T
   7   -116.9704839 -0.141245E-02  0.954E-02    2.01       1.0  T
   8   -116.9709745 -0.490615E-03  0.360E-02    2.03       1.0  T
   9   -116.9710097 -0.352008E-04  0.202E-02    2.02       1.0  T
  10   -116.9710106 -0.902760E-06  0.104E-02    2.03       1.1  T
  11   -116.9710121 -0.147850E-05  0.539E-03    2.03       2.0  T
  12   -116.9710126 -0.499283E-06  0.284E-03    2.03       3.9  T
  13   -116.9710127 -0.942047E-07  0.126E-03    2.03       8.7  T
  14   -116.9710127 -0.661716E-08  0.768E-04    2.03      14.3  T
  15   -116.9710127 -0.114557E-07  0.429E-04    2.03      25.6  T

   *** convergence criteria satisfied after 15 iterations ***

         #    Occupation            Energy/Eh            Energy/eV
      -------------------------------------------------------------
         1        2.0000           -0.9666337             -26.3034
       ...           ...                  ...                  ...
       102        2.0000           -0.4940019             -13.4425
       103        2.0000           -0.4887164             -13.2987
       104        2.0000           -0.4842570             -13.1773
       105        2.0000           -0.4665651             -12.6959
       106        2.0000           -0.4577502             -12.4560
       107        2.0000           -0.4567949             -12.4300
       108        2.0000           -0.4379791             -11.9180 (HOMO)
       109                         -0.3635139              -9.8917 (LUMO)
       110                         -0.3518151              -9.5734
       111                         -0.3465618              -9.4304
       112                         -0.3320738              -9.0362
       113                         -0.3266947              -8.8898
       ...                                ...                  ...
       224                          9.3472300             254.3511
      -------------------------------------------------------------
                  HL-Gap            0.0744652 Eh            2.0263 eV
             Fermi-level           -0.4007465 Eh          -10.9049 eV

 SCC (total)                   0 d,  0 h,  0 min,  2.062 sec
 SCC setup                      ...        0 min,  0.005 sec (  0.232%)
 Dispersion                     ...        0 min,  0.001 sec (  0.067%)
 classical contributions        ...        0 min,  0.000 sec (  0.006%)
 integral evaluation            ...        0 min,  0.007 sec (  0.321%)
 iterations                     ...        0 min,  1.927 sec ( 93.433%)
 molecular gradient             ...        0 min,  0.118 sec (  5.699%)
 printout                       ...        0 min,  0.005 sec (  0.239%)

         :::::::::::::::::::::::::::::::::::::::::::::::::::::
         ::                     SUMMARY                     ::
         :::::::::::::::::::::::::::::::::::::::::::::::::::::
         :: total energy            -113.595472789599 Eh    ::
         :: gradient norm              7.116362263024 Eh/a0 ::
         :: HOMO-LUMO gap              2.026300328266 eV    ::
         ::.................................................::
         :: SCC energy              -116.966256936645 Eh    ::
         :: -> isotropic ES            0.067343706921 Eh    ::
         :: -> anisotropic ES          0.013366776782 Eh    ::
         :: -> anisotropic XC          0.064575423144 Eh    ::
         :: -> dispersion             -0.126555911002 Eh    ::
         :: repulsion energy           3.370784147046 Eh    ::
         :: add. restraining           0.000000000000 Eh    ::
         :: total charge               1.000000000000 e     ::
         :::::::::::::::::::::::::::::::::::::::::::::::::::::

      ----------------------------------------------------------- 
     |                   =====================                   |
     |                        A N C O P T                        |
     |                   =====================                   |
     |               Approximate Normal Coordinate               |
     |                Rational Function Optimizer                |
      ----------------------------------------------------------- 
      ----------------------------------------------------------- 
     |                   =====================                   |
     |                        A N C O P T                        |
     |                   =====================                   |
     |               Approximate Normal Coordinate               |
     |                Rational Function Optimizer                |
      ----------------------------------------------------------- 

          ...................................................
          :                      SETUP                      :
          :.................................................:
          :   optimization level           extreme          :
          :   max. optcycles                  1660          :
          :   ANC micro-cycles                  20          :
          :   degrees of freedom               243          :
          :.................................................:
          :   RF solver                   davidson          :
          :   write xtbopt.log                true          :
          :   linear?                        false          :
          :   energy convergence         0.5000000E-07 Eh   :
          :   grad. convergence          0.5000000E-04 Eh/α :
          :   maxmium RF displ.          1.0000000          :
          :   Hlow (freq-cutoff)         0.1000000E-01      :
          :   Hmax (freq-cutoff)         5.0000000          :
          :   S6 in model hess.         20.0000000          :
          ...................................................

generating ANC from exact Hessian ...
Using Lindh-Hessian (1995)
 Shifting diagonal of input Hessian by    9.9242236365322204E-003
 Lowest  eigenvalues of input Hessian
    0.000000    0.000000    0.000000    0.000000    0.000000    0.000000
    0.010000    0.010011    0.010136    0.010198    0.010344    0.010617
    0.011081    0.011165    0.011274    0.011513    0.011679    0.011839
 Highest eigenvalues
    2.099558    2.126728    2.148343    2.232175    2.258000    3.958793


........................................................................
.............................. CYCLE    1 ..............................
........................................................................

 iter      E             dE          RMSdq      gap      omega  full diag
   1   -116.9710127 -0.116971E+03  0.235E-04    2.03       0.0  T
   2   -116.9710127 -0.334268E-09  0.164E-04    2.03      66.9  T
   3   -116.9710127 -0.453554E-09  0.127E-04    2.03      86.7  T
     SCC iter.                  ...        0 min,  0.263 sec
     gradient                   ...        0 min,  0.117 sec
 * total energy  :  -113.5954728 Eh     change       -0.2400199E-08 Eh
   gradient norm :     7.1163652 Eh/α   predicted     0.0000000E+00 (-100.00%)
   displ. norm   :     0.7637872 α      lambda       -0.5427712E+01
   maximum displ.:     0.7529703 α      in ANC's #243, #214, #181, ...

........................................................................
.............................. CYCLE    2 ..............................
........................................................................

 iter      E             dE          RMSdq      gap      omega  full diag
   1   -117.1284246 -0.117128E+03  0.229E+00    1.89       0.0  T
   2   -117.1439098 -0.154851E-01  0.117E+00    2.13       1.0  T
   3   -117.1441944 -0.284594E-03  0.485E-01    2.30       1.0  T
   4   -117.1441873  0.708840E-05  0.264E-01    2.27       1.0  T
   5   -117.1457644 -0.157716E-02  0.140E-01    2.30       1.0  T
   6   -117.1462072 -0.442811E-03  0.851E-02    2.30       1.0  T
   7   -117.1463420 -0.134741E-03  0.585E-02    2.29       1.0  T
   8   -117.1463933 -0.513359E-04  0.351E-02    2.29       1.0  T
   9   -117.1464220 -0.286740E-04  0.171E-02    2.29       1.0  T
  10   -117.1464250 -0.299020E-05  0.731E-03    2.29       1.5  T
  11   -117.1464265 -0.151373E-05  0.414E-03    2.29       2.7  T
  12   -117.1464267 -0.160809E-06  0.182E-03    2.29       6.0  T
  13   -117.1464267 -0.936250E-07  0.705E-04    2.29      15.6  T
  14   -117.1464268 -0.111440E-07  0.344E-04    2.29      31.9  T
     SCC iter.                  ...        0 min,  1.382 sec
     gradient                   ...        0 min,  0.113 sec
 * total energy  :  -115.1191164 Eh     change       -0.1523644E+01 Eh
   gradient norm :     0.4680423 Eh/α   predicted    -0.4297041E+01 ( 182.02%)
   displ. norm   :     0.7143308 α      lambda       -0.3049400E+00
   maximum displ.:     0.2449807 α      in ANC's #159, #55, #154, ...

........................................................................
.............................. CYCLE    3 ..............................
........................................................................

 iter      E             dE          RMSdq      gap      omega  full diag
   1   -117.2336983 -0.117234E+03  0.724E-01    2.27       0.0  T
   2   -117.2375051 -0.380684E-02  0.453E-01    2.30       1.0  T
   3   -117.2368404  0.664687E-03  0.282E-01    2.36       1.0  T
   4   -117.2387774 -0.193694E-02  0.177E-01    2.33       1.0  T
   5   -117.2385662  0.211186E-03  0.125E-01    2.34       1.0  T
   6   -117.2389179 -0.351715E-03  0.814E-02    2.33       1.0  T
   7   -117.2390713 -0.153427E-03  0.471E-02    2.33       1.0  T
   8   -117.2391070 -0.356580E-04  0.249E-02    2.33       1.0  T
   9   -117.2391174 -0.104149E-04  0.106E-02    2.33       1.0  T
  10   -117.2391205 -0.311688E-05  0.390E-03    2.33       2.8  T
  11   -117.2391208 -0.255618E-06  0.206E-03    2.33       5.3  T
  12   -117.2391209 -0.121598E-06  0.798E-04    2.33      13.8  T
  13   -117.2391209 -0.745746E-08  0.393E-04    2.33      27.9  T
     SCC iter.                  ...        0 min,  1.479 sec
     gradient                   ...        0 min,  0.113 sec
 * total energy  :  -115.2745522 Eh     change       -0.1554358E+00 Eh
   gradient norm :     0.2393542 Eh/α   predicted    -0.2302709E+00 (  48.15%)
   displ. norm   :     0.6231835 α      lambda       -0.9736387E-01
   maximum displ.:     0.1710899 α      in ANC's #41, #145, #152, ...

........................................................................
.............................. CYCLE    4 ..............................
........................................................................

 iter      E             dE          RMSdq      gap      omega  full diag
   1   -117.2864711 -0.117286E+03  0.556E-01    2.49       0.0  T
   2   -117.2871548 -0.683678E-03  0.284E-01    2.49       1.0  T
   3   -117.2864343  0.720558E-03  0.130E-01    2.50       1.0  T
   4   -117.2874074 -0.973148E-03  0.621E-02    2.49       1.0  T
   5   -117.2874689 -0.615017E-04  0.329E-02    2.50       1.0  T
   6   -117.2875287 -0.598214E-04  0.129E-02    2.50       1.0  T
   7   -117.2875346 -0.584326E-05  0.479E-03    2.50       2.3  T
   8   -117.2875350 -0.395480E-06  0.254E-03    2.50       4.3  T
   9   -117.2875350 -0.657655E-07  0.113E-03    2.50       9.7  T
  10   -117.2875351 -0.296851E-07  0.500E-04    2.50      22.0  T
  11   -117.2875351 -0.405396E-08  0.288E-04    2.50      38.1  T
     SCC iter.                  ...        0 min,  1.487 sec
     gradient                   ...        0 min,  0.113 sec
 * total energy  :  -115.3512375 Eh     change       -0.7668526E-01 Eh
   gradient norm :     0.1383407 Eh/α   predicted    -0.6758796E-01 ( -11.86%)
   displ. norm   :     0.6707949 α      lambda       -0.6192509E-01
   maximum displ.:     0.1892630 α      in ANC's #152, #41, #145, ...

........................................................................
.............................. CYCLE    5 ..............................
........................................................................

 iter      E             dE          RMSdq      gap      omega  full diag
   1   -117.2997560 -0.117300E+03  0.592E-01    2.57       0.0  T
   2   -117.3003126 -0.556601E-03  0.281E-01    2.57       1.0  T
   3   -117.3000246  0.287969E-03  0.104E-01    2.57       1.0  T
   4   -117.3003166 -0.292021E-03  0.614E-02    2.57       1.0  T
   5   -117.3004492 -0.132554E-03  0.305E-02    2.57       1.0  T
   6   -117.3004828 -0.336036E-04  0.160E-02    2.57       1.0  T
   7   -117.3004874 -0.462263E-05  0.836E-03    2.57       1.3  T
   8   -117.3004884 -0.105456E-05  0.516E-03    2.57       2.1  T
   9   -117.3004886 -0.171228E-06  0.249E-03    2.57       4.4  T
  10   -117.3004887 -0.125742E-06  0.147E-03    2.57       7.5  T
  11   -117.3004888 -0.169657E-07  0.831E-04    2.57      13.2  T
  12   -117.3004888 -0.119639E-07  0.374E-04    2.57      29.4  T
     SCC iter.                  ...        0 min,  1.306 sec
     gradient                   ...        0 min,  0.113 sec
 * total energy  :  -115.3966644 Eh     change       -0.4542696E-01 Eh
   gradient norm :     0.0635668 Eh/α   predicted    -0.4489468E-01 (  -1.17%)
   displ. norm   :     0.6516866 α      lambda       -0.2779514E-01
   maximum displ.:     0.2246151 α      in ANC's #28, #41, #54, ...

........................................................................
.............................. CYCLE    6 ..............................
........................................................................

 iter      E             dE          RMSdq      gap      omega  full diag
   1   -117.2920864 -0.117292E+03  0.348E-01    2.53       0.0  T
   2   -117.2924146 -0.328190E-03  0.169E-01    2.53       1.0  T
   3   -117.2923181  0.964923E-04  0.702E-02    2.51       1.0  T
   4   -117.2924417 -0.123632E-03  0.359E-02    2.51       1.0  T
   5   -117.2924739 -0.321244E-04  0.213E-02    2.51       1.0  T
   6   -117.2924923 -0.184102E-04  0.102E-02    2.51       1.1  T
   7   -117.2924934 -0.116165E-05  0.717E-03    2.51       1.5  T
   8   -117.2924943 -0.905292E-06  0.388E-03    2.51       2.8  T
   9   -117.2924945 -0.109942E-06  0.207E-03    2.51       5.3  T
  10   -117.2924946 -0.109915E-06  0.862E-04    2.51      12.7  T
  11   -117.2924946 -0.546817E-08  0.491E-04    2.51      22.4  T
     SCC iter.                  ...        0 min,  1.259 sec
     gradient                   ...        0 min,  0.114 sec
 * total energy  :  -115.4175275 Eh     change       -0.2086302E-01 Eh
   gradient norm :     0.0362251 Eh/α   predicted    -0.1979981E-01 (  -5.10%)
   displ. norm   :     0.6438145 α      lambda       -0.1416165E-01
   maximum displ.:     0.2636268 α      in ANC's #28, #41, #54, ...

........................................................................
.............................. CYCLE    7 ..............................
........................................................................

 iter      E             dE          RMSdq      gap      omega  full diag
   1   -117.2884109 -0.117288E+03  0.242E-01    2.40       0.0  T
   2   -117.2885473 -0.136412E-03  0.121E-01    2.39       1.0  T
   3   -117.2884924  0.549273E-04  0.499E-02    2.38       1.0  T
   4   -117.2885689 -0.764685E-04  0.222E-02    2.37       1.0  T
   5   -117.2885773 -0.836578E-05  0.121E-02    2.38       1.0  T
   6   -117.2885830 -0.572014E-05  0.625E-03    2.37       1.8  T
   7   -117.2885839 -0.925558E-06  0.446E-03    2.37       2.5  T
   8   -117.2885842 -0.278403E-06  0.246E-03    2.37       4.5  T
   9   -117.2885842 -0.536153E-07  0.127E-03    2.38       8.6  T
  10   -117.2885843 -0.369451E-07  0.489E-04    2.38      22.4  T
  11   -117.2885843 -0.428952E-08  0.245E-04    2.38      44.8  T
     SCC iter.                  ...        0 min,  0.995 sec
     gradient                   ...        0 min,  0.159 sec
 * total energy  :  -115.4282993 Eh     change       -0.1077182E-01 Eh
   gradient norm :     0.0242498 Eh/α   predicted    -0.1001584E-01 (  -7.02%)
   displ. norm   :     0.6360278 α      lambda       -0.7986140E-02
   maximum displ.:     0.2605507 α      in ANC's #28, #19, #33, ...

........................................................................
.............................. CYCLE    8 ..............................
........................................................................

 iter      E             dE          RMSdq      gap      omega  full diag
   1   -117.2923629 -0.117292E+03  0.173E-01    2.33       0.0  T
   2   -117.2923988 -0.359673E-04  0.904E-02    2.32       1.0  T
   3   -117.2923799  0.189602E-04  0.256E-02    2.32       1.0  T
   4   -117.2923983 -0.184309E-04  0.142E-02    2.31       1.0  T
   5   -117.2924064 -0.806787E-05  0.600E-03    2.32       1.8  T
   6   -117.2924074 -0.105155E-05  0.305E-03    2.32       3.6  T
   7   -117.2924079 -0.421341E-06  0.184E-03    2.32       6.0  T
   8   -117.2924079 -0.457811E-07  0.105E-03    2.32      10.5  T
   9   -117.2924079 -0.813912E-08  0.658E-04    2.32      16.7  T
  10   -117.2924079 -0.479679E-08  0.303E-04    2.32      36.2  T
     SCC iter.                  ...        0 min,  1.178 sec
     gradient                   ...        0 min,  0.116 sec
 * total energy  :  -115.4345149 Eh     change       -0.6215583E-02 Eh
   gradient norm :     0.0187426 Eh/α   predicted    -0.5608393E-02 (  -9.77%)
   displ. norm   :     0.6366876 α      lambda       -0.5043042E-02
   maximum displ.:     0.2226723 α      in ANC's #28, #19, #21, ...

........................................................................
.............................. CYCLE    9 ..............................
........................................................................

 iter      E             dE          RMSdq      gap      omega  full diag
   1   -117.2998229 -0.117300E+03  0.128E-01    2.23       0.0  T
   2   -117.2998523 -0.293936E-04  0.704E-02    2.24       1.0  T
   3   -117.2998447  0.758418E-05  0.230E-02    2.24       1.0  T
   4   -117.2998529 -0.820082E-05  0.104E-02    2.23       1.1  T
   5   -117.2998568 -0.383122E-05  0.513E-03    2.24       2.1  T
   6   -117.2998580 -0.123022E-05  0.208E-03    2.24       5.3  T
   7   -117.2998582 -0.229562E-06  0.109E-03    2.24      10.1  T
   8   -117.2998583 -0.256977E-07  0.499E-04    2.24      22.0  T
   9   -117.2998583 -0.655119E-08  0.214E-04    2.24      51.3  T
     SCC iter.                  ...        0 min,  1.236 sec
     gradient                   ...        0 min,  0.117 sec
 * total energy  :  -115.4384763 Eh     change       -0.3961434E-02 Eh
   gradient norm :     0.0163485 Eh/α   predicted    -0.3543673E-02 ( -10.55%)
   displ. norm   :     0.6415561 α      lambda       -0.3368443E-02
   maximum displ.:     0.2250870 α      in ANC's #19, #6, #24, ...

........................................................................
.............................. CYCLE   10 ..............................
........................................................................

 iter      E             dE          RMSdq      gap      omega  full diag
   1   -117.3066003 -0.117307E+03  0.100E-01    2.19       0.0  T
   2   -117.3066132 -0.128607E-04  0.566E-02    2.20       1.0  T
   3   -117.3066100  0.323633E-05  0.164E-02    2.20       1.0  T
   4   -117.3066128 -0.288720E-05  0.726E-03    2.20       1.5  T
   5   -117.3066149 -0.207057E-05  0.364E-03    2.20       3.0  T
   6   -117.3066156 -0.691488E-06  0.142E-03    2.20       7.7  T
   7   -117.3066157 -0.906595E-07  0.813E-04    2.20      13.5  T
   8   -117.3066157 -0.139980E-07  0.344E-04    2.20      31.9  T
     SCC iter.                  ...        0 min,  0.811 sec
     gradient                   ...        0 min,  0.114 sec
 * total energy  :  -115.4411834 Eh     change       -0.2707133E-02 Eh
   gradient norm :     0.0157466 Eh/α   predicted    -0.2377447E-02 ( -12.18%)
   displ. norm   :     0.6577251 α      lambda       -0.2575790E-02
   maximum displ.:     0.2218603 α      in ANC's #19, #6, #24, ...

........................................................................
.............................. CYCLE   11 ..............................
........................................................................

 iter      E             dE          RMSdq      gap      omega  full diag
   1   -117.3118618 -0.117312E+03  0.935E-02    2.19       0.0  T
   2   -117.3118668 -0.497992E-05  0.538E-02    2.20       1.0  T
   3   -117.3118628  0.398602E-05  0.112E-02    2.20       1.0  T
   4   -117.3118662 -0.339540E-05  0.546E-03    2.20       2.0  T
   5   -117.3118678 -0.160285E-05  0.265E-03    2.20       4.1  T
   6   -117.3118682 -0.379028E-06  0.104E-03    2.20      10.6  T
   7   -117.3118683 -0.602805E-07  0.452E-04    2.20      24.3  T
   8   -117.3118683 -0.227597E-08  0.179E-04    2.20      61.2  T
     SCC iter.                  ...        0 min,  1.002 sec
     gradient                   ...        0 min,  0.168 sec
 * total energy  :  -115.4433064 Eh     change       -0.2122967E-02 Eh
   gradient norm :     0.0147687 Eh/α   predicted    -0.1845050E-02 ( -13.09%)
   displ. norm   :     0.6794349 α      lambda       -0.2215138E-02
   maximum displ.:     0.2472654 α      in ANC's #6, #19, #4, ...

........................................................................
.............................. CYCLE   12 ..............................
........................................................................

 iter      E             dE          RMSdq      gap      omega  full diag
   1   -117.3154910 -0.117315E+03  0.100E-01    2.23       0.0  T
   2   -117.3154970 -0.597748E-05  0.583E-02    2.23       1.0  T
   3   -117.3154877  0.932446E-05  0.155E-02    2.24       1.0  T
   4   -117.3154986 -0.109517E-04  0.460E-03    2.24       2.4  T
   5   -117.3154984  0.229497E-06  0.291E-03    2.24       3.8  T
   6   -117.3154990 -0.655071E-06  0.998E-04    2.24      11.0  T
   7   -117.3154991 -0.523162E-07  0.500E-04    2.24      21.9  T
     SCC iter.                  ...        0 min,  0.787 sec
     gradient                   ...        0 min,  0.114 sec
 * total energy  :  -115.4451717 Eh     change       -0.1865335E-02 Eh
   gradient norm :     0.0139666 Eh/α   predicted    -0.1618864E-02 ( -13.21%)
   displ. norm   :     0.6942023 α      lambda       -0.2055276E-02
   maximum displ.:     0.2766100 α      in ANC's #6, #4, #15, ...

........................................................................
.............................. CYCLE   13 ..............................
........................................................................

 iter      E             dE          RMSdq      gap      omega  full diag
   1   -117.3176028 -0.117318E+03  0.108E-01    2.29       0.0  T
   2   -117.3176122 -0.935355E-05  0.634E-02    2.29       1.0  T
   3   -117.3176013  0.108927E-04  0.179E-02    2.29       1.0  T
   4   -117.3176141 -0.128231E-04  0.517E-03    2.29       2.1  T
   5   -117.3176141 -0.387616E-07  0.334E-03    2.29       3.3  T
   6   -117.3176149 -0.770777E-06  0.137E-03    2.29       8.0  T
   7   -117.3176150 -0.713929E-07  0.850E-04    2.29      12.9  T
   8   -117.3176150 -0.436657E-08  0.529E-04    2.29      20.7  T
     SCC iter.                  ...        0 min,  0.653 sec
     gradient                   ...        0 min,  0.180 sec
 * total energy  :  -115.4469294 Eh     change       -0.1757675E-02 Eh
   gradient norm :     0.0139766 Eh/α   predicted    -0.1522884E-02 ( -13.36%)
   displ. norm   :     0.7043655 α      lambda       -0.1992089E-02
   maximum displ.:     0.2947659 α      in ANC's #6, #4, #15, ...

........................................................................
.............................. CYCLE   14 ..............................
........................................................................

 iter      E             dE          RMSdq      gap      omega  full diag
   1   -117.3187840 -0.117319E+03  0.114E-01    2.35       0.0  T
   2   -117.3187955 -0.115181E-04  0.668E-02    2.35       1.0  T
   3   -117.3187867  0.880891E-05  0.182E-02    2.35       1.0  T
   4   -117.3187966 -0.992293E-05  0.586E-03    2.35       1.9  T
   5   -117.3187977 -0.106596E-05  0.359E-03    2.35       3.1  T
   6   -117.3187984 -0.695446E-06  0.172E-03    2.35       6.4  T
   7   -117.3187985 -0.956088E-07  0.112E-03    2.35       9.8  T
   8   -117.3187985 -0.711064E-08  0.718E-04    2.35      15.3  T
   9   -117.3187985 -0.475150E-08  0.354E-04    2.35      31.0  T
     SCC iter.                  ...        0 min,  1.296 sec
     gradient                   ...        0 min,  0.169 sec
 * total energy  :  -115.4486293 Eh     change       -0.1699855E-02 Eh
   gradient norm :     0.0140469 Eh/α   predicted    -0.1490214E-02 ( -12.33%)
   displ. norm   :     0.6990484 α      lambda       -0.1860839E-02
   maximum displ.:     0.2969958 α      in ANC's #6, #4, #7, ...

........................................................................
.............................. CYCLE   15 ..............................
........................................................................

 iter      E             dE          RMSdq      gap      omega  full diag
   1   -117.3192799 -0.117319E+03  0.114E-01    2.41       0.0  T
   2   -117.3192906 -0.106742E-04  0.674E-02    2.41       1.0  T
   3   -117.3192854  0.522277E-05  0.164E-02    2.41       1.0  T
   4   -117.3192912 -0.584440E-05  0.546E-03    2.41       2.0  T
   5   -117.3192926 -0.136217E-05  0.314E-03    2.41       3.5  T
   6   -117.3192929 -0.343308E-06  0.175E-03    2.41       6.3  T
   7   -117.3192930 -0.856273E-07  0.113E-03    2.41       9.7  T
   8   -117.3192930 -0.870182E-08  0.769E-04    2.41      14.3  T
   9   -117.3192930 -0.459610E-08  0.356E-04    2.41      30.8  T
     SCC iter.                  ...        0 min,  0.940 sec
     gradient                   ...        0 min,  0.115 sec
 * total energy  :  -115.4501983 Eh     change       -0.1569068E-02 Eh
   gradient norm :     0.0134355 Eh/α   predicted    -0.1385088E-02 ( -11.73%)
   displ. norm   :     0.6787269 α      lambda       -0.1654026E-02
   maximum displ.:     0.2924777 α      in ANC's #6, #4, #7, ...

........................................................................
.............................. CYCLE   16 ..............................
........................................................................

 iter      E             dE          RMSdq      gap      omega  full diag
   1   -117.3210162 -0.117321E+03  0.115E-01    2.46       0.0  T
   2   -117.3210258 -0.963666E-05  0.681E-02    2.45       1.0  T
   3   -117.3210222  0.367775E-05  0.135E-02    2.45       1.0  T
   4   -117.3210269 -0.471408E-05  0.446E-03    2.45       2.5  T
   5   -117.3210276 -0.770397E-06  0.261E-03    2.45       4.2  T
   6   -117.3210278 -0.143899E-06  0.151E-03    2.45       7.3  T
   7   -117.3210278 -0.346005E-07  0.960E-04    2.45      11.4  T
   8   -117.3210278 -0.109976E-07  0.698E-04    2.45      15.7  T
     SCC iter.                  ...        0 min,  0.990 sec
     gradient                   ...        0 min,  0.175 sec
 * total energy  :  -115.4515579 Eh     change       -0.1359607E-02 Eh
   gradient norm :     0.0115177 Eh/α   predicted    -0.1207995E-02 ( -11.15%)
   displ. norm   :     0.7015892 α      lambda       -0.1484420E-02
   maximum displ.:     0.2963433 α      in ANC's #4, #6, #7, ...

........................................................................
.............................. CYCLE   17 ..............................
........................................................................

 iter      E             dE          RMSdq      gap      omega  full diag
   1   -117.3156593 -0.117316E+03  0.123E-01    2.49       0.0  T
   2   -117.3156748 -0.154607E-04  0.718E-02    2.48       1.0  T
   3   -117.3156709  0.393844E-05  0.126E-02    2.48       1.0  T
   4   -117.3156764 -0.552519E-05  0.442E-03    2.48       2.5  T
   5   -117.3156770 -0.640761E-06  0.242E-03    2.48       4.5  T
   6   -117.3156771 -0.849826E-07  0.134E-03    2.48       8.2  T
   7   -117.3156771 -0.306372E-07  0.789E-04    2.48      13.9  T
   8   -117.3156772 -0.165342E-07  0.552E-04    2.48      19.9  T
     SCC iter.                  ...        0 min,  0.946 sec
     gradient                   ...        0 min,  0.139 sec
 * total energy  :  -115.4523784 Eh     change       -0.8204638E-03 Eh
   gradient norm :     0.0187390 Eh/α   predicted    -0.1107553E-02 (  34.99%)
   displ. norm   :     0.5332233 α      lambda       -0.1783389E-02
   maximum displ.:     0.2250068 α      in ANC's #6, #4, #7, ...

........................................................................
.............................. CYCLE   18 ..............................
........................................................................

 iter      E             dE          RMSdq      gap      omega  full diag
   1   -117.3265225 -0.117327E+03  0.111E-01    2.50       0.0  T
   2   -117.3265440 -0.214419E-04  0.645E-02    2.50       1.0  T
   3   -117.3265407  0.322783E-05  0.120E-02    2.50       1.0  T
   4   -117.3265451 -0.432618E-05  0.487E-03    2.50       2.3  T
   5   -117.3265460 -0.946860E-06  0.264E-03    2.50       4.2  T
   6   -117.3265462 -0.171090E-06  0.141E-03    2.50       7.8  T
   7   -117.3265463 -0.986977E-07  0.605E-04    2.50      18.2  T
   8   -117.3265463 -0.108683E-07  0.347E-04    2.50      31.6  T
     SCC iter.                  ...        0 min,  0.869 sec
     gradient                   ...        0 min,  0.116 sec
 * total energy  :  -115.4532963 Eh     change       -0.9179466E-03 Eh
   gradient norm :     0.0122899 Eh/α   predicted    -0.1145231E-02 (  24.76%)
   displ. norm   :     0.5420347 α      lambda       -0.7990294E-03
   maximum displ.:     0.2539242 α      in ANC's #6, #4, #7, ...

........................................................................
.............................. CYCLE   19 ..............................
........................................................................

 iter      E             dE          RMSdq      gap      omega  full diag
   1   -117.3172713 -0.117317E+03  0.847E-02    2.51       0.0  T
   2   -117.3172753 -0.402023E-05  0.491E-02    2.51       1.0  T
   3   -117.3172711  0.418135E-05  0.978E-03    2.51       1.1  T
   4   -117.3172762 -0.509977E-05  0.283E-03    2.51       3.9  T
   5   -117.3172764 -0.216844E-06  0.141E-03    2.51       7.8  T
   6   -117.3172765 -0.682924E-07  0.768E-04    2.51      14.3  T
   7   -117.3172765 -0.373602E-07  0.373E-04    2.51      29.4  T
     SCC iter.                  ...        0 min,  0.902 sec
     gradient                   ...        0 min,  0.127 sec
 * total energy  :  -115.4537677 Eh     change       -0.4713620E-03 Eh
   gradient norm :     0.0139109 Eh/α   predicted    -0.5168941E-03 (   9.66%)
   displ. norm   :     0.4654584 α      lambda       -0.1098949E-02
   maximum displ.:     0.2262603 α      in ANC's #4, #6, #10, ...

........................................................................
.............................. CYCLE   20 ..............................
........................................................................

 iter      E             dE          RMSdq      gap      omega  full diag
   1   -117.3207440 -0.117321E+03  0.840E-02    2.52       0.0  T
   2   -117.3207553 -0.113224E-04  0.481E-02    2.52       1.0  T
   3   -117.3207523  0.303330E-05  0.112E-02    2.52       1.0  T
   4   -117.3207564 -0.409261E-05  0.407E-03    2.52       2.7  T
   5   -117.3207569 -0.534191E-06  0.185E-03    2.52       5.9  T
   6   -117.3207570 -0.936836E-07  0.796E-04    2.52      13.8  T
   7   -117.3207570 -0.199876E-07  0.352E-04    2.52      31.2  T
     SCC iter.                  ...        0 min,  0.602 sec
     gradient                   ...        0 min,  0.113 sec
 * total energy  :  -115.4543374 Eh     change       -0.5696836E-03 Eh
   gradient norm :     0.0127351 Eh/α   predicted    -0.6685236E-03 (  17.35%)
   displ. norm   :     0.3762077 α      lambda       -0.7989660E-03
   maximum displ.:     0.1841206 α      in ANC's #4, #6, #10, ...
 * RMSD in coord.:     0.8976124 α      energy gain  -0.1858865E+01 Eh

generating ANC from exact Hessian ...
Using Lindh-Hessian (1995)
 Shifting diagonal of input Hessian by    1.0221115786741990E-002
 Lowest  eigenvalues of input Hessian
    0.010000    0.000000    0.000000    0.000000    0.000000    0.000000
    0.000000    0.010265    0.010295    0.010428    0.010452    0.010546
    0.010745    0.010854    0.011173    0.011272    0.011330    0.011416
 Highest eigenvalues
    2.008272    2.019605    2.031171    2.073995    2.114655    2.129429


........................................................................
.............................. CYCLE   21 ..............................
........................................................................

 iter      E             dE          RMSdq      gap      omega  full diag
   1   -117.3282736 -0.117328E+03  0.681E-02    2.53       0.0  T
   2   -117.3282782 -0.458713E-05  0.397E-02    2.52       1.0  T
   3   -117.3282746  0.365518E-05  0.100E-02    2.52       1.1  T
   4   -117.3282787 -0.412060E-05  0.338E-03    2.52       3.3  T
   5   -117.3282790 -0.310959E-06  0.192E-03    2.52       5.7  T
   6   -117.3282792 -0.217715E-06  0.777E-04    2.52      14.1  T
   7   -117.3282793 -0.282598E-07  0.326E-04    2.52      33.7  T
     SCC iter.                  ...        0 min,  1.072 sec
     gradient                   ...        0 min,  0.123 sec
 * total energy  :  -115.4549222 Eh     change       -0.5847588E-03 Eh
   gradient norm :     0.0084996 Eh/α   predicted     0.0000000E+00 (-100.00%)
   displ. norm   :     0.1337527 α      lambda       -0.3782141E-03
   maximum displ.:     0.0590695 α      in ANC's #6, #12, #4, ...

........................................................................
.............................. CYCLE   22 ..............................
........................................................................

 iter      E             dE          RMSdq      gap      omega  full diag
   1   -117.3278962 -0.117328E+03  0.511E-02    2.48       0.0  T
   2   -117.3279005 -0.430877E-05  0.247E-02    2.48       1.0  T
   3   -117.3279006 -0.726070E-07  0.643E-03    2.48       1.7  T
   4   -117.3279006 -0.569027E-08  0.410E-03    2.48       2.7  T
   5   -117.3279010 -0.445539E-06  0.222E-03    2.48       4.9  T
   6   -117.3279013 -0.257639E-06  0.938E-04    2.48      11.7  T
   7   -117.3279013 -0.131274E-07  0.584E-04    2.48      18.8  T
     SCC iter.                  ...        0 min,  0.783 sec
     gradient                   ...        0 min,  0.113 sec
 * total energy  :  -115.4552153 Eh     change       -0.2931943E-03 Eh
   gradient norm :     0.0036348 Eh/α   predicted    -0.1926111E-03 ( -34.31%)
   displ. norm   :     0.3215219 α      lambda       -0.5187652E-03
   maximum displ.:     0.1455298 α      in ANC's #6, #4, #12, ...

........................................................................
.............................. CYCLE   23 ..............................
........................................................................

 iter      E             dE          RMSdq      gap      omega  full diag
   1   -117.3273704 -0.117327E+03  0.788E-02    2.49       0.0  T
   2   -117.3273770 -0.663132E-05  0.397E-02    2.49       1.0  T
   3   -117.3273762  0.759782E-06  0.981E-03    2.49       1.1  T
   4   -117.3273765 -0.238549E-06  0.566E-03    2.48       1.9  T
   5   -117.3273780 -0.148736E-05  0.237E-03    2.49       4.6  T
   6   -117.3273783 -0.385151E-06  0.804E-04    2.49      13.7  T
   7   -117.3273784 -0.338636E-07  0.312E-04    2.49      35.2  T
     SCC iter.                  ...        0 min,  0.753 sec
     gradient                   ...        0 min,  0.113 sec
 * total energy  :  -115.4556003 Eh     change       -0.3849561E-03 Eh
   gradient norm :     0.0055899 Eh/α   predicted    -0.2862161E-03 ( -25.65%)
   displ. norm   :     0.4203658 α      lambda       -0.4709031E-03
   maximum displ.:     0.1969298 α      in ANC's #6, #4, #2, ...

........................................................................
.............................. CYCLE   24 ..............................
........................................................................

 iter      E             dE          RMSdq      gap      omega  full diag
   1   -117.3264454 -0.117326E+03  0.920E-02    2.45       0.0  T
   2   -117.3264533 -0.795565E-05  0.475E-02    2.45       1.0  T
   3   -117.3264517  0.164740E-05  0.125E-02    2.45       1.0  T
   4   -117.3264525 -0.848215E-06  0.653E-03    2.45       1.7  T
   5   -117.3264547 -0.216610E-05  0.275E-03    2.45       4.0  T
   6   -117.3264550 -0.295867E-06  0.146E-03    2.45       7.5  T
   7   -117.3264551 -0.121253E-06  0.522E-04    2.45      21.0  T
   8   -117.3264551 -0.154525E-08  0.329E-04    2.45      33.3  T
     SCC iter.                  ...        0 min,  1.193 sec
     gradient                   ...        0 min,  0.114 sec
 * total energy  :  -115.4559745 Eh     change       -0.3741734E-03 Eh
   gradient norm :     0.0082978 Eh/α   predicted    -0.2772466E-03 ( -25.90%)
   displ. norm   :     0.5358692 α      lambda       -0.5678097E-03
   maximum displ.:     0.2472307 α      in ANC's #6, #4, #2, ...

........................................................................
.............................. CYCLE   25 ..............................
........................................................................

 iter      E             dE          RMSdq      gap      omega  full diag
   1   -117.3262623 -0.117326E+03  0.944E-02    2.50       0.0  T
   2   -117.3262667 -0.445154E-05  0.535E-02    2.50       1.0  T
   3   -117.3262621  0.462301E-05  0.126E-02    2.49       1.0  T
   4   -117.3262667 -0.459432E-05  0.605E-03    2.49       1.8  T
   5   -117.3262680 -0.128654E-05  0.254E-03    2.49       4.3  T
   6   -117.3262683 -0.274962E-06  0.127E-03    2.49       8.6  T
   7   -117.3262683 -0.547285E-07  0.822E-04    2.49      13.4  T
   8   -117.3262683 -0.106322E-07  0.441E-04    2.49      24.9  T
     SCC iter.                  ...        0 min,  0.946 sec
     gradient                   ...        0 min,  0.113 sec
 * total energy  :  -115.4564223 Eh     change       -0.4478682E-03 Eh
   gradient norm :     0.0085462 Eh/α   predicted    -0.3654360E-03 ( -18.41%)
   displ. norm   :     0.5445625 α      lambda       -0.5671668E-03
   maximum displ.:     0.2661557 α      in ANC's #6, #4, #2, ...

........................................................................
.............................. CYCLE   26 ..............................
........................................................................

 iter      E             dE          RMSdq      gap      omega  full diag
   1   -117.3276213 -0.117328E+03  0.885E-02    2.47       0.0  T
   2   -117.3276249 -0.358294E-05  0.506E-02    2.48       1.0  T
   3   -117.3276200  0.494480E-05  0.116E-02    2.48       1.0  T
   4   -117.3276253 -0.531020E-05  0.429E-03    2.48       2.6  T
   5   -117.3276261 -0.869206E-06  0.173E-03    2.48       6.3  T
   6   -117.3276262 -0.844748E-07  0.107E-03    2.48      10.2  T
   7   -117.3276263 -0.458654E-07  0.570E-04    2.48      19.2  T
   8   -117.3276263 -0.613936E-08  0.335E-04    2.48      32.8  T
     SCC iter.                  ...        0 min,  1.146 sec
     gradient                   ...        0 min,  0.113 sec
 * total energy  :  -115.4568607 Eh     change       -0.4383601E-03 Eh
   gradient norm :     0.0060415 Eh/α   predicted    -0.3676852E-03 ( -16.12%)
   displ. norm   :     0.4826419 α      lambda       -0.4450275E-03
   maximum displ.:     0.2405913 α      in ANC's #6, #4, #2, ...

........................................................................
.............................. CYCLE   27 ..............................
........................................................................

 iter      E             dE          RMSdq      gap      omega  full diag
   1   -117.3310418 -0.117331E+03  0.757E-02    2.51       0.0  T
   2   -117.3310449 -0.307135E-05  0.444E-02    2.51       1.0  T
   3   -117.3310391  0.577271E-05  0.113E-02    2.51       1.0  T
   4   -117.3310458 -0.666611E-05  0.330E-03    2.51       3.3  T
   5   -117.3310461 -0.292814E-06  0.156E-03    2.51       7.0  T
   6   -117.3310462 -0.697086E-07  0.693E-04    2.51      15.9  T
   7   -117.3310462 -0.234202E-07  0.396E-04    2.51      27.7  T
     SCC iter.                  ...        0 min,  0.805 sec
     gradient                   ...        0 min,  0.113 sec
 * total energy  :  -115.4571978 Eh     change       -0.3371387E-03 Eh
   gradient norm :     0.0047043 Eh/α   predicted    -0.2743517E-03 ( -18.62%)
   displ. norm   :     0.4781607 α      lambda       -0.3429553E-03
   maximum displ.:     0.2437406 α      in ANC's #6, #4, #2, ...

........................................................................
.............................. CYCLE   28 ..............................
........................................................................

 iter      E             dE          RMSdq      gap      omega  full diag
   1   -117.3320909 -0.117332E+03  0.802E-02    2.53       0.0  T
   2   -117.3320944 -0.349685E-05  0.437E-02    2.53       1.0  T
   3   -117.3320929  0.150451E-05  0.951E-03    2.53       1.2  T
   4   -117.3320943 -0.148534E-05  0.521E-03    2.53       2.1  T
   5   -117.3320951 -0.781736E-06  0.173E-03    2.53       6.3  T
   6   -117.3320952 -0.102028E-06  0.715E-04    2.53      15.4  T
   7   -117.3320952 -0.100918E-07  0.468E-04    2.53      23.4  T
     SCC iter.                  ...        0 min,  0.964 sec
     gradient                   ...        0 min,  0.167 sec
 * total energy  :  -115.4574598 Eh     change       -0.2619776E-03 Eh
   gradient norm :     0.0049511 Eh/α   predicted    -0.2106842E-03 ( -19.58%)
   displ. norm   :     0.4829013 α      lambda       -0.3429232E-03
   maximum displ.:     0.2438854 α      in ANC's #6, #4, #2, ...

........................................................................
.............................. CYCLE   29 ..............................
........................................................................

 iter      E             dE          RMSdq      gap      omega  full diag
   1   -117.3323649 -0.117332E+03  0.773E-02    2.53       0.0  T
   2   -117.3323675 -0.253763E-05  0.426E-02    2.53       1.0  T
   3   -117.3323654  0.210523E-05  0.941E-03    2.53       1.2  T
   4   -117.3323677 -0.229337E-05  0.465E-03    2.53       2.4  T
   5   -117.3323682 -0.506998E-06  0.164E-03    2.53       6.7  T
   6   -117.3323683 -0.139475E-06  0.517E-04    2.53      21.2  T
   7   -117.3323683 -0.107782E-07  0.303E-04    2.53      36.3  T
     SCC iter.                  ...        0 min,  0.936 sec
     gradient                   ...        0 min,  0.113 sec
 * total energy  :  -115.4577243 Eh     change       -0.2645164E-03 Eh
   gradient norm :     0.0053188 Eh/α   predicted    -0.2114533E-03 ( -20.06%)
   displ. norm   :     0.5081372 α      lambda       -0.3497007E-03
   maximum displ.:     0.2506834 α      in ANC's #6, #4, #2, ...

........................................................................
.............................. CYCLE   30 ..............................
........................................................................

 iter      E             dE          RMSdq      gap      omega  full diag
   1   -117.3325881 -0.117333E+03  0.701E-02    2.55       0.0  T
   2   -117.3325905 -0.243175E-05  0.397E-02    2.55       1.0  T
   3   -117.3325894  0.107903E-05  0.803E-03    2.55       1.4  T
   4   -117.3325906 -0.123381E-05  0.316E-03    2.55       3.5  T
   5   -117.3325910 -0.353927E-06  0.134E-03    2.55       8.2  T
   6   -117.3325911 -0.763309E-07  0.458E-04    2.55      24.0  T
   7   -117.3325911 -0.867495E-08  0.220E-04    2.55      50.0  T
     SCC iter.                  ...        0 min,  0.593 sec
     gradient                   ...        0 min,  0.113 sec
 * total energy  :  -115.4580149 Eh     change       -0.2905162E-03 Eh
   gradient norm :     0.0054362 Eh/α   predicted    -0.2199978E-03 ( -24.27%)
   displ. norm   :     0.5590740 α      lambda       -0.3718158E-03
   maximum displ.:     0.2683622 α      in ANC's #6, #4, #2, ...

........................................................................
.............................. CYCLE   31 ..............................
........................................................................

 iter      E             dE          RMSdq      gap      omega  full diag
   1   -117.3312879 -0.117331E+03  0.748E-02    2.55       0.0  T
   2   -117.3312903 -0.246238E-05  0.424E-02    2.55       1.0  T
   3   -117.3312886  0.172173E-05  0.905E-03    2.55       1.2  T
   4   -117.3312907 -0.207413E-05  0.313E-03    2.55       3.5  T
   5   -117.3312909 -0.239169E-06  0.125E-03    2.55       8.7  T
   6   -117.3312910 -0.825645E-07  0.401E-04    2.55      27.4  T
   7   -117.3312910 -0.550610E-08  0.220E-04    2.55      49.8  T
     SCC iter.                  ...        0 min,  0.721 sec
     gradient                   ...        0 min,  0.112 sec
 * total energy  :  -115.4583203 Eh     change       -0.3054241E-03 Eh
   gradient norm :     0.0053602 Eh/α   predicted    -0.2440215E-03 ( -20.10%)
   displ. norm   :     0.5630469 α      lambda       -0.3489898E-03
   maximum displ.:     0.2728791 α      in ANC's #2, #4, #6, ...

........................................................................
.............................. CYCLE   32 ..............................
........................................................................

 iter      E             dE          RMSdq      gap      omega  full diag
   1   -117.3331435 -0.117333E+03  0.749E-02    2.55       0.0  T
   2   -117.3331464 -0.287165E-05  0.425E-02    2.56       1.0  T
   3   -117.3331437  0.264484E-05  0.101E-02    2.56       1.1  T
   4   -117.3331469 -0.317999E-05  0.342E-03    2.56       3.2  T
   5   -117.3331471 -0.193546E-06  0.153E-03    2.56       7.2  T
   6   -117.3331472 -0.104173E-06  0.667E-04    2.56      16.4  T
   7   -117.3331472 -0.291503E-07  0.333E-04    2.56      33.0  T
     SCC iter.                  ...        0 min,  0.799 sec
     gradient                   ...        0 min,  0.119 sec
 * total energy  :  -115.4585829 Eh     change       -0.2625880E-03 Eh
   gradient norm :     0.0062569 Eh/α   predicted    -0.2298147E-03 ( -12.48%)
   displ. norm   :     0.5986430 α      lambda       -0.2960777E-03
   maximum displ.:     0.2991034 α      in ANC's #2, #6, #4, ...

........................................................................
.............................. CYCLE   33 ..............................
........................................................................

 iter      E             dE          RMSdq      gap      omega  full diag
   1   -117.3288133 -0.117329E+03  0.776E-02    2.57       0.0  T
   2   -117.3288161 -0.281898E-05  0.440E-02    2.57       1.0  T
   3   -117.3288151  0.101137E-05  0.773E-03    2.57       1.4  T
   4   -117.3288164 -0.128020E-05  0.357E-03    2.57       3.1  T
   5   -117.3288167 -0.265077E-06  0.147E-03    2.57       7.5  T
   6   -117.3288168 -0.120102E-06  0.682E-04    2.57      16.1  T
   7   -117.3288168 -0.277529E-07  0.345E-04    2.57      31.8  T
     SCC iter.                  ...        0 min,  0.756 sec
     gradient                   ...        0 min,  0.149 sec
 * total energy  :  -115.4587839 Eh     change       -0.2010064E-03 Eh
   gradient norm :     0.0055595 Eh/α   predicted    -0.2011074E-03 (   0.05%)
   displ. norm   :     0.4386072 α      lambda       -0.2306355E-03
   maximum displ.:     0.2317672 α      in ANC's #2, #6, #4, ...

........................................................................
.............................. CYCLE   34 ..............................
........................................................................

 iter      E             dE          RMSdq      gap      omega  full diag
   1   -117.3318746 -0.117332E+03  0.531E-02    2.58       0.0  T
   2   -117.3318761 -0.144944E-05  0.304E-02    2.59       1.0  T
   3   -117.3318753  0.798562E-06  0.546E-03    2.59       2.0  T
   4   -117.3318763 -0.968708E-06  0.240E-03    2.59       4.6  T
   5   -117.3318764 -0.113048E-06  0.117E-03    2.59       9.4  T
   6   -117.3318764 -0.757793E-07  0.531E-04    2.59      20.7  T
   7   -117.3318765 -0.196448E-07  0.235E-04    2.59      46.8  T
     SCC iter.                  ...        0 min,  0.738 sec
     gradient                   ...        0 min,  0.139 sec
 * total energy  :  -115.4589661 Eh     change       -0.1822738E-03 Eh
   gradient norm :     0.0037247 Eh/α   predicted    -0.1375051E-03 ( -24.56%)
   displ. norm   :     0.5082897 α      lambda       -0.2189544E-03
   maximum displ.:     0.2789795 α      in ANC's #2, #6, #4, ...

........................................................................
.............................. CYCLE   35 ..............................
........................................................................

 iter      E             dE          RMSdq      gap      omega  full diag
   1   -117.3335667 -0.117334E+03  0.578E-02    2.60       0.0  T
   2   -117.3335684 -0.163740E-05  0.332E-02    2.60       1.0  T
   3   -117.3335676  0.766295E-06  0.515E-03    2.61       2.1  T
   4   -117.3335685 -0.893498E-06  0.257E-03    2.61       4.3  T
   5   -117.3335687 -0.234598E-06  0.107E-03    2.61      10.3  T
   6   -117.3335688 -0.562389E-07  0.491E-04    2.61      22.4  T
   7   -117.3335688 -0.144276E-07  0.238E-04    2.61      46.2  T
     SCC iter.                  ...        0 min,  1.124 sec
     gradient                   ...        0 min,  0.135 sec
 * total energy  :  -115.4591484 Eh     change       -0.1822041E-03 Eh
   gradient norm :     0.0033525 Eh/α   predicted    -0.1377651E-03 ( -24.39%)
   displ. norm   :     0.4998350 α      lambda       -0.2004516E-03
   maximum displ.:     0.2826889 α      in ANC's #2, #6, #4, ...

........................................................................
.............................. CYCLE   36 ..............................
........................................................................

 iter      E             dE          RMSdq      gap      omega  full diag
   1   -117.3352543 -0.117335E+03  0.567E-02    2.61       0.0  T
   2   -117.3352558 -0.151489E-05  0.323E-02    2.62       1.0  T
   3   -117.3352551  0.655888E-06  0.497E-03    2.62       2.2  T
   4   -117.3352559 -0.736069E-06  0.267E-03    2.62       4.1  T
   5   -117.3352562 -0.317179E-06  0.813E-04    2.62      13.5  T
   6   -117.3352562 -0.243687E-07  0.406E-04    2.62      27.0  T
     SCC iter.                  ...        0 min,  0.792 sec
     gradient                   ...        0 min,  0.168 sec
 * total energy  :  -115.4593143 Eh     change       -0.1659102E-03 Eh
   gradient norm :     0.0039956 Eh/α   predicted    -0.1252669E-03 ( -24.50%)
   displ. norm   :     0.4970969 α      lambda       -0.1690764E-03
   maximum displ.:     0.2837433 α      in ANC's #2, #4, #6, ...

........................................................................
.............................. CYCLE   37 ..............................
........................................................................

 iter      E             dE          RMSdq      gap      omega  full diag
   1   -117.3345614 -0.117335E+03  0.580E-02    2.62       0.0  T
   2   -117.3345627 -0.131573E-05  0.329E-02    2.63       1.0  T
   3   -117.3345621  0.629403E-06  0.504E-03    2.63       2.2  T
   4   -117.3345628 -0.693799E-06  0.272E-03    2.63       4.0  T
   5   -117.3345631 -0.315559E-06  0.730E-04    2.63      15.0  T
   6   -117.3345631 -0.309122E-07  0.360E-04    2.63      30.5  T
     SCC iter.                  ...        0 min,  0.555 sec
     gradient                   ...        0 min,  0.153 sec
 * total energy  :  -115.4594551 Eh     change       -0.1408509E-03 Eh
   gradient norm :     0.0042123 Eh/α   predicted    -0.1054291E-03 ( -25.15%)
   displ. norm   :     0.4433505 α      lambda       -0.1452136E-03
   maximum displ.:     0.2634345 α      in ANC's #2, #4, #6, ...

........................................................................
.............................. CYCLE   38 ..............................
........................................................................

 iter      E             dE          RMSdq      gap      omega  full diag
   1   -117.3358373 -0.117336E+03  0.517E-02    2.63       0.0  T
   2   -117.3358387 -0.139263E-05  0.293E-02    2.63       1.0  T
   3   -117.3358379  0.833490E-06  0.564E-03    2.63       1.9  T
   4   -117.3358390 -0.106515E-05  0.242E-03    2.63       4.5  T
   5   -117.3358391 -0.166949E-06  0.619E-04    2.63      17.7  T
   6   -117.3358392 -0.201472E-07  0.279E-04    2.63      39.3  T
     SCC iter.                  ...        0 min,  0.937 sec
     gradient                   ...        0 min,  0.166 sec
 * total energy  :  -115.4595722 Eh     change       -0.1170500E-03 Eh
   gradient norm :     0.0033031 Eh/α   predicted    -0.8688145E-04 ( -25.77%)
   displ. norm   :     0.4374334 α      lambda       -0.1236063E-03
   maximum displ.:     0.2596604 α      in ANC's #2, #4, #6, ...

........................................................................
.............................. CYCLE   39 ..............................
........................................................................

 iter      E             dE          RMSdq      gap      omega  full diag
   1   -117.3336260 -0.117334E+03  0.525E-02    2.63       0.0  T
   2   -117.3336273 -0.127339E-05  0.299E-02    2.63       1.0  T
   3   -117.3336266  0.686068E-06  0.544E-03    2.63       2.0  T
   4   -117.3336275 -0.892906E-06  0.222E-03    2.63       5.0  T
   5   -117.3336276 -0.115444E-06  0.716E-04    2.63      15.3  T
   6   -117.3336277 -0.350353E-07  0.279E-04    2.63      39.3  T
     SCC iter.                  ...        0 min,  0.888 sec
     gradient                   ...        0 min,  0.168 sec
 * total energy  :  -115.4596704 Eh     change       -0.9819987E-04 Eh
   gradient norm :     0.0027924 Eh/α   predicted    -0.7363445E-04 ( -25.02%)
   displ. norm   :     0.3764869 α      lambda       -0.1101372E-03
   maximum displ.:     0.2358263 α      in ANC's #2, #5, #4, ...

........................................................................
.............................. CYCLE   40 ..............................
........................................................................

 iter      E             dE          RMSdq      gap      omega  full diag
   1   -117.3349282 -0.117335E+03  0.431E-02    2.64       0.0  T
   2   -117.3349294 -0.119346E-05  0.246E-02    2.64       1.0  T
   3   -117.3349285  0.833011E-06  0.548E-03    2.64       2.0  T
   4   -117.3349296 -0.105028E-05  0.194E-03    2.64       5.7  T
   5   -117.3349296 -0.709935E-07  0.774E-04    2.64      14.2  T
   6   -117.3349297 -0.304495E-07  0.365E-04    2.64      30.1  T
     SCC iter.                  ...        0 min,  0.822 sec
     gradient                   ...        0 min,  0.113 sec
 * total energy  :  -115.4597602 Eh     change       -0.8981488E-04 Eh
   gradient norm :     0.0024525 Eh/α   predicted    -0.6287666E-04 ( -29.99%)
   displ. norm   :     0.3992636 α      lambda       -0.1130733E-03
   maximum displ.:     0.2519211 α      in ANC's #2, #5, #4, ...

........................................................................
.............................. CYCLE   41 ..............................
........................................................................

 iter      E             dE          RMSdq      gap      omega  full diag
   1   -117.3346355 -0.117335E+03  0.454E-02    2.64       0.0  T
   2   -117.3346365 -0.932797E-06  0.260E-02    2.64       1.0  T
   3   -117.3346358  0.641226E-06  0.464E-03    2.64       2.4  T
   4   -117.3346366 -0.734934E-06  0.195E-03    2.64       5.6  T
   5   -117.3346367 -0.114434E-06  0.866E-04    2.64      12.7  T
   6   -117.3346367 -0.477502E-07  0.382E-04    2.64      28.7  T
     SCC iter.                  ...        0 min,  0.668 sec
     gradient                   ...        0 min,  0.165 sec
 * total energy  :  -115.4598581 Eh     change       -0.9787555E-04 Eh
   gradient norm :     0.0033378 Eh/α   predicted    -0.6555267E-04 ( -33.02%)
   displ. norm   :     0.4422460 α      lambda       -0.1422187E-03
   maximum displ.:     0.2822914 α      in ANC's #2, #5, #3, ...

........................................................................
.............................. CYCLE   42 ..............................
........................................................................

 iter      E             dE          RMSdq      gap      omega  full diag
   1   -117.3349201 -0.117335E+03  0.491E-02    2.65       0.0  T
   2   -117.3349211 -0.990088E-06  0.283E-02    2.65       1.0  T
   3   -117.3349205  0.637321E-06  0.431E-03    2.65       2.5  T
   4   -117.3349211 -0.600275E-06  0.222E-03    2.65       4.9  T
   5   -117.3349213 -0.266090E-06  0.925E-04    2.65      11.9  T
   6   -117.3349214 -0.386549E-07  0.424E-04    2.65      25.9  T
     SCC iter.                  ...        0 min,  0.730 sec
     gradient                   ...        0 min,  0.169 sec
 * total energy  :  -115.4599820 Eh     change       -0.1239872E-03 Eh
   gradient norm :     0.0041656 Eh/α   predicted    -0.8501738E-04 ( -31.43%)
   displ. norm   :     0.5226816 α      lambda       -0.1771163E-03
   maximum displ.:     0.3328981 α      in ANC's #2, #5, #3, ...
 * RMSD in coord.:     0.9538474 α      energy gain  -0.5644645E-02 Eh

generating ANC from exact Hessian ...
Using Lindh-Hessian (1995)
 Shifting diagonal of input Hessian by    1.0906844892318055E-002
 Lowest  eigenvalues of input Hessian
    0.010000    0.000000    0.000000    0.000000    0.000000    0.000000
    0.000000    0.010968    0.010987    0.011134    0.011179    0.011192
    0.011360    0.011504    0.011866    0.011925    0.011959    0.012052
 Highest eigenvalues
    2.012004    2.018344    2.030952    2.074817    2.116252    2.128416


........................................................................
.............................. CYCLE   43 ..............................
........................................................................

 iter      E             dE          RMSdq      gap      omega  full diag
   1   -117.3348006 -0.117335E+03  0.585E-02    2.65       0.0  T
   2   -117.3348020 -0.141540E-05  0.338E-02    2.66       1.0  T
   3   -117.3348012  0.746725E-06  0.473E-03    2.66       2.3  T
   4   -117.3348018 -0.601159E-06  0.262E-03    2.66       4.2  T
   5   -117.3348023 -0.461260E-06  0.101E-03    2.66      10.9  T
   6   -117.3348023 -0.412755E-07  0.406E-04    2.66      27.0  T
   7   -117.3348023 -0.714711E-08  0.227E-04    2.66      48.4  T
     SCC iter.                  ...        0 min,  0.887 sec
     gradient                   ...        0 min,  0.178 sec
 * total energy  :  -115.4601342 Eh     change       -0.1521231E-03 Eh
   gradient norm :     0.0042185 Eh/α   predicted     0.0000000E+00 (-100.00%)
   displ. norm   :     0.0530449 α      lambda       -0.6403925E-04
   maximum displ.:     0.0225448 α      in ANC's #15, #3, #17, ...

........................................................................
.............................. CYCLE   44 ..............................
........................................................................

 iter      E             dE          RMSdq      gap      omega  full diag
   1   -117.3354112 -0.117335E+03  0.127E-02    2.66       0.0  T
   2   -117.3354113 -0.153031E-06  0.728E-03    2.66       1.5  T
   3   -117.3354113  0.532322E-07  0.150E-03    2.66       7.3  T
   4   -117.3354113 -0.684793E-07  0.646E-04    2.66      17.0  T
   5   -117.3354113 -0.135791E-07  0.241E-04    2.66      45.6  T
     SCC iter.                  ...        0 min,  0.738 sec
     gradient                   ...        0 min,  0.118 sec
 * total energy  :  -115.4601871 Eh     change       -0.5289266E-04 Eh
   gradient norm :     0.0022112 Eh/α   predicted    -0.3263268E-04 ( -38.30%)
   displ. norm   :     0.1625111 α      lambda       -0.1191779E-03
   maximum displ.:     0.0691951 α      in ANC's #3, #15, #17, ...

........................................................................
.............................. CYCLE   45 ..............................
........................................................................

 iter      E             dE          RMSdq      gap      omega  full diag
   1   -117.3362667 -0.117336E+03  0.330E-02    2.66       0.0  T
   2   -117.3362675 -0.720408E-06  0.184E-02    2.66       1.0  T
   3   -117.3362673  0.137292E-06  0.379E-03    2.66       2.9  T
   4   -117.3362675 -0.167720E-06  0.197E-03    2.66       5.6  T
   5   -117.3362676 -0.103052E-06  0.864E-04    2.66      12.7  T
   6   -117.3362676 -0.174719E-07  0.521E-04    2.66      21.1  T
     SCC iter.                  ...        0 min,  0.713 sec
     gradient                   ...        0 min,  0.115 sec
 * total energy  :  -115.4602649 Eh     change       -0.7786399E-04 Eh
   gradient norm :     0.0025782 Eh/α   predicted    -0.6116458E-04 ( -21.45%)
   displ. norm   :     0.1772021 α      lambda       -0.8147250E-04
   maximum displ.:     0.0797155 α      in ANC's #3, #15, #6, ...

........................................................................
.............................. CYCLE   46 ..............................
........................................................................

 iter      E             dE          RMSdq      gap      omega  full diag
   1   -117.3365614 -0.117337E+03  0.454E-02    2.67       0.0  T
   2   -117.3365624 -0.990958E-06  0.233E-02    2.67       1.0  T
   3   -117.3365620  0.376516E-06  0.555E-03    2.67       2.0  T
   4   -117.3365624 -0.377005E-06  0.297E-03    2.67       3.7  T
   5   -117.3365626 -0.128753E-06  0.137E-03    2.67       8.0  T
   6   -117.3365627 -0.121269E-06  0.475E-04    2.67      23.1  T
   7   -117.3365627 -0.629247E-08  0.319E-04    2.67      34.4  T
     SCC iter.                  ...        0 min,  0.856 sec
     gradient                   ...        0 min,  0.113 sec
 * total energy  :  -115.4603079 Eh     change       -0.4295892E-04 Eh
   gradient norm :     0.0042955 Eh/α   predicted    -0.4201757E-04 (  -2.19%)
   displ. norm   :     0.2351203 α      lambda       -0.1097933E-03
   maximum displ.:     0.1101420 α      in ANC's #3, #15, #6, ...

........................................................................
.............................. CYCLE   47 ..............................
........................................................................

 iter      E             dE          RMSdq      gap      omega  full diag
   1   -117.3362987 -0.117336E+03  0.463E-02    2.65       0.0  T
   2   -117.3362997 -0.941316E-06  0.247E-02    2.66       1.0  T
   3   -117.3362995  0.202544E-06  0.491E-03    2.66       2.2  T
   4   -117.3362996 -0.129427E-06  0.307E-03    2.66       3.6  T
   5   -117.3362999 -0.258010E-06  0.128E-03    2.66       8.5  T
   6   -117.3362999 -0.470525E-07  0.848E-04    2.66      12.9  T
   7   -117.3362999 -0.172738E-07  0.568E-04    2.66      19.3  T
     SCC iter.                  ...        0 min,  0.805 sec
     gradient                   ...        0 min,  0.115 sec
 * total energy  :  -115.4603868 Eh     change       -0.7895333E-04 Eh
   gradient norm :     0.0048679 Eh/α   predicted    -0.5793391E-04 ( -26.62%)
   displ. norm   :     0.2801318 α      lambda       -0.1282953E-03
   maximum displ.:     0.1368533 α      in ANC's #3, #2, #6, ...

........................................................................
.............................. CYCLE   48 ..............................
........................................................................

 iter      E             dE          RMSdq      gap      omega  full diag
   1   -117.3360190 -0.117336E+03  0.457E-02    2.66       0.0  T
   2   -117.3360202 -0.113881E-05  0.256E-02    2.66       1.0  T
   3   -117.3360198  0.343557E-06  0.428E-03    2.66       2.6  T
   4   -117.3360201 -0.259715E-06  0.268E-03    2.66       4.1  T
   5   -117.3360204 -0.297642E-06  0.875E-04    2.66      12.5  T
   6   -117.3360204 -0.227845E-07  0.489E-04    2.66      22.5  T
     SCC iter.                  ...        0 min,  0.597 sec
     gradient                   ...        0 min,  0.112 sec
 * total energy  :  -115.4604906 Eh     change       -0.1038021E-03 Eh
   gradient norm :     0.0042760 Eh/α   predicted    -0.6918274E-04 ( -33.35%)
   displ. norm   :     0.4019583 α      lambda       -0.1810157E-03
   maximum displ.:     0.2040913 α      in ANC's #3, #2, #6, ...

........................................................................
.............................. CYCLE   49 ..............................
........................................................................

 iter      E             dE          RMSdq      gap      omega  full diag
   1   -117.3353173 -0.117335E+03  0.627E-02    2.65       0.0  T
   2   -117.3353196 -0.235450E-05  0.366E-02    2.65       1.0  T
   3   -117.3353180  0.166259E-05  0.633E-03    2.65       1.7  T
   4   -117.3353197 -0.168624E-05  0.332E-03    2.65       3.3  T
   5   -117.3353200 -0.394063E-06  0.142E-03    2.65       7.7  T
   6   -117.3353202 -0.131949E-06  0.559E-04    2.65      19.6  T
   7   -117.3353202 -0.137859E-07  0.305E-04    2.65      36.0  T
     SCC iter.                  ...        0 min,  0.959 sec
     gradient                   ...        0 min,  0.130 sec
 * total energy  :  -115.4606232 Eh     change       -0.1326113E-03 Eh
   gradient norm :     0.0050166 Eh/α   predicted    -0.1051336E-03 ( -20.72%)
   displ. norm   :     0.3496505 α      lambda       -0.1492626E-03
   maximum displ.:     0.1839929 α      in ANC's #3, #2, #6, ...

........................................................................
.............................. CYCLE   50 ..............................
........................................................................

 iter      E             dE          RMSdq      gap      omega  full diag
   1   -117.3353550 -0.117335E+03  0.561E-02    2.67       0.0  T
   2   -117.3353566 -0.156426E-05  0.316E-02    2.66       1.0  T
   3   -117.3353561  0.536897E-06  0.556E-03    2.66       2.0  T
   4   -117.3353565 -0.463425E-06  0.305E-03    2.66       3.6  T
   5   -117.3353569 -0.396886E-06  0.106E-03    2.66      10.3  T
   6   -117.3353570 -0.503968E-07  0.504E-04    2.66      21.8  T
   7   -117.3353570 -0.670433E-08  0.280E-04    2.66      39.2  T
     SCC iter.                  ...        0 min,  0.897 sec
     gradient                   ...        0 min,  0.118 sec
 * total energy  :  -115.4607418 Eh     change       -0.1185414E-03 Eh
   gradient norm :     0.0055518 Eh/α   predicted    -0.8375623E-04 ( -29.34%)
   displ. norm   :     0.4146108 α      lambda       -0.1960166E-03
   maximum displ.:     0.2271846 α      in ANC's #3, #2, #6, ...

........................................................................
.............................. CYCLE   51 ..............................
........................................................................

 iter      E             dE          RMSdq      gap      omega  full diag
   1   -117.3358203 -0.117336E+03  0.636E-02    2.66       0.0  T
   2   -117.3358221 -0.184305E-05  0.370E-02    2.66       1.0  T
   3   -117.3358209  0.122222E-05  0.643E-03    2.66       1.7  T
   4   -117.3358224 -0.147472E-05  0.289E-03    2.66       3.8  T
   5   -117.3358225 -0.179133E-06  0.117E-03    2.66       9.4  T
   6   -117.3358226 -0.850348E-07  0.462E-04    2.66      23.7  T
   7   -117.3358226 -0.891059E-08  0.271E-04    2.66      40.5  T
     SCC iter.                  ...        0 min,  1.014 sec
     gradient                   ...        0 min,  0.117 sec
 * total energy  :  -115.4609047 Eh     change       -0.1628702E-03 Eh
   gradient norm :     0.0051779 Eh/α   predicted    -0.1148571E-03 ( -29.48%)
   displ. norm   :     0.5502560 α      lambda       -0.2485627E-03
   maximum displ.:     0.3040712 α      in ANC's #3, #2, #6, ...

........................................................................
.............................. CYCLE   52 ..............................
........................................................................

 iter      E             dE          RMSdq      gap      omega  full diag
   1   -117.3353001 -0.117335E+03  0.812E-02    2.66       0.0  T
   2   -117.3353021 -0.196725E-05  0.469E-02    2.66       1.0  T
   3   -117.3353011  0.958601E-06  0.621E-03    2.66       1.8  T
   4   -117.3353023 -0.120256E-05  0.314E-03    2.66       3.5  T
   5   -117.3353027 -0.367381E-06  0.109E-03    2.66      10.1  T
   6   -117.3353027 -0.472728E-07  0.341E-04    2.66      32.2  T
   7   -117.3353027 -0.375834E-09  0.209E-04    2.66      52.6  T
     SCC iter.                  ...        0 min,  0.845 sec
     gradient                   ...        0 min,  0.116 sec
 * total energy  :  -115.4611199 Eh     change       -0.2152213E-03 Eh
   gradient norm :     0.0050260 Eh/α   predicted    -0.1619134E-03 ( -24.77%)
   displ. norm   :     0.6066038 α      lambda       -0.3063524E-03
   maximum displ.:     0.3439032 α      in ANC's #3, #2, #5, ...

........................................................................
.............................. CYCLE   53 ..............................
........................................................................

 iter      E             dE          RMSdq      gap      omega  full diag
   1   -117.3369360 -0.117337E+03  0.862E-02    2.65       0.0  T
   2   -117.3369387 -0.270663E-05  0.492E-02    2.66       1.0  T
   3   -117.3369372  0.151368E-05  0.821E-03    2.66       1.3  T
   4   -117.3369390 -0.188179E-05  0.367E-03    2.66       3.0  T
   5   -117.3369395 -0.426462E-06  0.145E-03    2.66       7.6  T
   6   -117.3369396 -0.941013E-07  0.461E-04    2.66      23.8  T
   7   -117.3369396 -0.529778E-08  0.288E-04    2.66      38.1  T
     SCC iter.                  ...        0 min,  0.630 sec
     gradient                   ...        0 min,  0.114 sec
 * total energy  :  -115.4613728 Eh     change       -0.2529213E-03 Eh
   gradient norm :     0.0049364 Eh/α   predicted    -0.2095432E-03 ( -17.15%)
   displ. norm   :     0.7550618 α      lambda       -0.3180806E-03
   maximum displ.:     0.4247266 α      in ANC's #3, #2, #5, ...

........................................................................
.............................. CYCLE   54 ..............................
........................................................................

 iter      E             dE          RMSdq      gap      omega  full diag
   1   -117.3325052 -0.117333E+03  0.109E-01    2.64       0.0  T
   2   -117.3325112 -0.595881E-05  0.621E-02    2.65       1.0  T
   3   -117.3325102  0.924518E-06  0.871E-03    2.65       1.3  T
   4   -117.3325117 -0.144851E-05  0.437E-03    2.65       2.5  T
   5   -117.3325123 -0.613879E-06  0.179E-03    2.65       6.1  T
   6   -117.3325124 -0.111766E-06  0.720E-04    2.65      15.2  T
   7   -117.3325124 -0.649950E-08  0.448E-04    2.65      24.5  T
     SCC iter.                  ...        0 min,  0.926 sec
     gradient                   ...        0 min,  0.113 sec
 * total energy  :  -115.4615880 Eh     change       -0.2152073E-03 Eh
   gradient norm :     0.0084200 Eh/α   predicted    -0.2497180E-03 (  16.04%)
[...]
     2   6 C        3.802    -0.064    21.735     6.637
     3   6 C        3.937     0.046    19.747     6.315
     4   6 C        3.754    -0.119    22.837     6.814
     5   7 N        2.679    -0.129    23.806     7.246
     6   6 C        3.887     0.043    19.801     6.326
     7   6 C        3.753    -0.120    22.858     6.818
     8   6 C        3.803    -0.061    21.667     6.627
     9   6 C        3.752    -0.110    22.658     6.788
    10  15 P        4.567     0.237   150.135    22.010
    11  34 Se       1.890    -0.069   238.030    26.884
    12  16 S        2.022    -0.052   143.213    20.142
    13   6 C        2.972     0.039    27.117     8.542
    14   6 C        2.967    -0.035    28.859     8.812
    15   6 C        2.922    -0.023    28.568     8.765
    16   6 C        2.919    -0.024    28.603     8.770
    17   6 C        2.922    -0.023    28.591     8.769
    18   6 C        2.946    -0.031    28.780     8.799
    19   7 N        2.683    -0.120    23.615     7.217
    20   6 C        3.866    -0.026    20.986     6.514
    21   6 C        3.048     0.053    26.765     8.485
    22   6 C        2.918    -0.046    29.145     8.853
    23   6 C        2.918    -0.032    28.808     8.802
    24   6 C        2.987     0.014    27.686     8.631
    25   6 C        2.920    -0.030    28.753     8.793
    26   6 C        2.915    -0.022    28.544     8.761
    27   6 C        2.917    -0.022    28.561     8.764
    28   6 C        2.917    -0.032    28.794     8.799
    29   6 C        2.988     0.013    27.726     8.637
    30   6 C        2.976    -0.007    28.188     8.709
    31   6 C        2.980    -0.006    28.171     8.706
    32   6 C        3.308     0.054    24.954     7.981
    33   6 C        2.914    -0.045    29.118     8.849
    34   6 C        2.919    -0.030    28.754     8.793
    35   6 C        2.986     0.014    27.681     8.630
    36   6 C        2.919    -0.030    28.740     8.791
    37   6 C        2.915    -0.021    28.541     8.761
    38   6 C        2.917    -0.022    28.555     8.763
    39   6 C        2.917    -0.032    28.791     8.799
    40   6 C        2.987     0.012    27.733     8.638
    41   7 N        2.683    -0.126    23.738     7.236
    42   6 C        3.783    -0.033    21.181     6.556
    43   1 H        0.925     0.055     2.262     2.352
    44   1 H        0.925     0.045     2.378     2.412
    45   1 H        0.925     0.048     2.347     2.396
    46   1 H        0.924     0.048     2.342     2.393
    47   1 H        0.924     0.042     2.416     2.431
    48   1 H        0.923     0.055     2.263     2.352
    49   1 H        0.925     0.052     2.301     2.372
    50   1 H        0.925     0.045     2.382     2.414
    51   1 H        0.925     0.068     2.109     2.271
    52   1 H        0.924     0.063     2.167     2.302
    53   1 H        0.925     0.052     2.293     2.368
    54   1 H        0.925     0.063     2.160     2.298
    55   1 H        0.925     0.048     2.344     2.394
    56   1 H        0.924     0.046     2.374     2.409
    57   1 H        0.924     0.038     2.474     2.460
    58   1 H        0.925     0.048     2.342     2.393
    59   1 H        0.925     0.048     2.347     2.396
    60   1 H        0.925     0.052     2.299     2.371
    61   1 H        0.926     0.050     2.314     2.379
    62   1 H        0.926     0.057     2.232     2.336
    63   1 H        0.926     0.057     2.236     2.338
    64   1 H        0.926     0.054     2.276     2.359
    65   1 H        0.925     0.049     2.336     2.390
    66   1 H        0.925     0.069     2.100     2.266
    67   1 H        0.924     0.061     2.183     2.311
    68   1 H        0.924     0.049     2.337     2.391
    69   1 H        0.926     0.042     2.418     2.431
    70   1 H        0.926     0.054     2.266     2.354
    71   1 H        0.926     0.049     2.334     2.389
    72   1 H        0.926     0.052     2.300     2.372
    73   1 H        0.926     0.048     2.341     2.393
    74   1 H        0.926     0.038     2.477     2.461
    75   1 H        0.926     0.046     2.365     2.405
    76   1 H        0.926     0.057     2.239     2.340
    77   1 H        0.926     0.050     2.321     2.382
    78   1 H        0.926     0.052     2.294     2.369
    79   1 H        0.926     0.049     2.336     2.390
    80   1 H        0.926     0.039     2.462     2.454
    81   1 H        0.924     0.052     2.291     2.367
    82   1 H        0.925     0.073     2.053     2.241
    83   1 H        0.925     0.065     2.137     2.286

 Mol. C6AA /au·bohr⁶  :      90312.923686
 Mol. C8AA /au·bohr⁸  :    2495186.089873
 Mol. α(0) /au        :        480.512040


Wiberg/Mayer (AO) data.
largest (>0.10) Wiberg bond orders for each atom

 ---------------------------------------------------------------------------
     #   Z sym  total        # sym  WBO       # sym  WBO       # sym  WBO
 ---------------------------------------------------------------------------
     1   6 C    3.991 --     2 C    1.017    43 H    0.984    44 H    0.984
                            45 H    0.984
     2   6 C    3.993 --     1 C    1.017     3 C    0.990    46 H    0.973
                            47 H    0.968
     3   6 C    3.956 --     4 C    1.004     2 C    0.990     5 N    0.939
                            48 H    0.931
     4   6 C    3.990 --     3 C    1.004    50 H    0.979    49 H    0.979
                            51 H    0.975
     5   7 N    3.436 --    10 P    1.283     3 C    0.939     6 C    0.930
     6   6 C    3.955 --     7 C    1.005     8 C    0.992    52 H    0.952
                             5 N    0.930
     7   6 C    3.991 --     6 C    1.005    54 H    0.979    55 H    0.979
                            53 H    0.974
     8   6 C    3.994 --     9 C    1.016     6 C    0.992    57 H    0.971
                            56 H    0.953
     9   6 C    3.991 --     8 C    1.016    59 H    0.986    58 H    0.985
                            60 H    0.985
    10  15 P    5.067 --     5 N    1.283    19 N    1.227    41 N    1.215
                            11 Se   0.902
    11  34 Se   2.615 --    12 S    1.266    10 P    0.902
    12  16 S    2.449 --    11 Se   1.266    13 C    0.970
    13   6 C    3.953 --    18 C    1.407    14 C    1.402    12 S    0.970
                            16 C    0.103
    14   6 C    3.988 --    15 C    1.439    13 C    1.402    61 H    0.967
                            17 C    0.109
    15   6 C    3.987 --    14 C    1.439    16 C    1.438    62 H    0.967
                            18 C    0.109
    16   6 C    3.983 --    15 C    1.438    17 C    1.434    63 H    0.969
                            13 C    0.103
    17   6 C    3.990 --    18 C    1.441    16 C    1.434    64 H    0.968
                            14 C    0.109
    18   6 C    3.989 --    17 C    1.441    13 C    1.407    65 H    0.952
                            15 C    0.109
    19   7 N    3.416 --    10 P    1.227    20 C    0.970    21 C    0.966
    20   6 C    3.965 --    66 H    0.975    68 H    0.972    19 N    0.970
                            67 H    0.965
    21   6 C    3.948 --    30 C    1.468    22 C    1.282    19 N    0.966
    22   6 C    3.984 --    23 C    1.559    21 C    1.282    69 H    0.961
    23   6 C    3.984 --    22 C    1.559    24 C    1.271    70 H    0.966
                            30 C    0.105
    24   6 C    3.987 --    25 C    1.282    23 C    1.271    29 C    1.256
    25   6 C    3.988 --    26 C    1.553    24 C    1.282    71 H    0.967
                            28 C    0.117
    26   6 C    3.987 --    25 C    1.553    27 C    1.325    72 H    0.969
    27   6 C    3.990 --    28 C    1.550    26 C    1.325    73 H    0.970
    28   6 C    3.990 --    27 C    1.550    29 C    1.287    74 H    0.965
                            25 C    0.117
    29   6 C    3.986 --    28 C    1.287    24 C    1.256    30 C    1.227
    30   6 C    3.985 --    21 C    1.468    29 C    1.227    31 C    1.034
                            23 C    0.105
    31   6 C    3.985 --    32 C    1.446    40 C    1.234    30 C    1.034
                            34 C    0.104
    32   6 C    3.953 --    31 C    1.446    33 C    1.277    41 N    0.963
    33   6 C    3.987 --    34 C    1.548    32 C    1.277    75 H    0.957
    34   6 C    3.982 --    33 C    1.548    35 C    1.275    76 H    0.966
                            31 C    0.104
    35   6 C    3.988 --    36 C    1.281    34 C    1.275    40 C    1.252
    36   6 C    3.988 --    37 C    1.554    35 C    1.281    77 H    0.967
                            39 C    0.117
    37   6 C    3.986 --    36 C    1.554    38 C    1.323    78 H    0.969
    38   6 C    3.989 --    39 C    1.552    37 C    1.323    79 H    0.970
    39   6 C    3.988 --    38 C    1.552    40 C    1.285    80 H    0.966
                            36 C    0.117
    40   6 C    3.986 --    39 C    1.285    35 C    1.252    31 C    1.234
    41   7 N    3.409 --    10 P    1.215    42 C    0.976    32 C    0.963
    42   6 C    3.961 --    41 N    0.976    82 H    0.976    81 H    0.975
                            83 H    0.965
    43   1 H    0.996 --     1 C    0.984
    44   1 H    0.998 --     1 C    0.984
    45   1 H    0.997 --     1 C    0.984
    46   1 H    0.998 --     2 C    0.973
    47   1 H    0.998 --     2 C    0.968
    48   1 H    0.996 --     3 C    0.931
    49   1 H    0.996 --     4 C    0.979
    50   1 H    0.998 --     4 C    0.979
    51   1 H    0.994 --     4 C    0.975
    52   1 H    0.991 --     6 C    0.952
    53   1 H    0.997 --     7 C    0.974
    54   1 H    0.995 --     7 C    0.979
    55   1 H    0.998 --     7 C    0.979
    56   1 H    0.998 --     8 C    0.953
    57   1 H    0.998 --     8 C    0.971
    58   1 H    0.997 --     9 C    0.985
    59   1 H    0.997 --     9 C    0.986
    60   1 H    0.997 --     9 C    0.985
    61   1 H    0.997 --    14 C    0.967
    62   1 H    0.996 --    15 C    0.967
    63   1 H    0.996 --    16 C    0.969
    64   1 H    0.997 --    17 C    0.968
    65   1 H    0.998 --    18 C    0.952
    66   1 H    0.995 --    20 C    0.975
    67   1 H    0.996 --    20 C    0.965
    68   1 H    0.997 --    20 C    0.972
    69   1 H    0.997 --    22 C    0.961
    70   1 H    0.995 --    23 C    0.966
    71   1 H    0.997 --    25 C    0.967
    72   1 H    0.996 --    26 C    0.969
    73   1 H    0.997 --    27 C    0.970
    74   1 H    0.998 --    28 C    0.965
    75   1 H    0.996 --    33 C    0.957
    76   1 H    0.995 --    34 C    0.966
    77   1 H    0.997 --    36 C    0.967
    78   1 H    0.996 --    37 C    0.969
    79   1 H    0.997 --    38 C    0.970
    80   1 H    0.998 --    39 C    0.966
    81   1 H    0.996 --    42 C    0.975
    82   1 H    0.994 --    42 C    0.976
    83   1 H    0.995 --    42 C    0.965
 ---------------------------------------------------------------------------

Topologies differ in total number of bonds
Writing topology from bond orders to xtbtopo.mol

molecular dipole:
                 x           y           z       tot (Debye)
 q only:       -0.277      -0.296      -0.236
   full:       -0.164      -0.236      -0.119       0.792
molecular quadrupole (traceless):
                xx          xy          yy          xz          yz          zz
 q only:       11.497       7.980       4.781       1.806      -2.259     -16.278
  q+dip:        6.993      13.420       3.453       5.303      -1.606     -10.447
   full:        7.718       8.490       6.498       4.237      -2.827     -14.216

           -------------------------------------------------
          |                Geometry Summary                 |
           -------------------------------------------------

      molecular mass/u    :      657.7301107
   center of mass at/Å    :        0.0429612       0.4094162       0.3192998
  moments of inertia/u·Å² :        0.5337549E+04   0.7541692E+04   0.9303659E+04
rotational constants/cm⁻¹ :        0.3158310E-02   0.2235259E-02   0.1811936E-02

 * 84 selected distances

     #   Z          #   Z                                           value/Å
     1   6 C        2   6 C                                       1.5241727
     2   6 C        3   6 C                                       1.5338382
     3   6 C        4   6 C                                       1.5255086
     3   6 C        5   7 N                                       1.4741357
     5   7 N        6   6 C                                       1.4749873
     6   6 C        7   6 C                                       1.5255199
     6   6 C        8   6 C                                       1.5310558
     8   6 C        9   6 C                                       1.5239384
     5   7 N       10  15 P                                       1.6492768
    13   6 C       14   6 C                                       1.3865088
    14   6 C       15   6 C                                       1.3840376
    15   6 C       16   6 C                                       1.3850274
    16   6 C       17   6 C                                       1.3856046
    13   6 C       18   6 C                                       1.3847763
    17   6 C       18   6 C                                       1.3833317
    10  15 P       19   7 N                                       1.6533488
    19   7 N       20   6 C                                       1.4562540
    19   7 N       21   6 C                                       1.4308714
    21   6 C       22   6 C                                       1.4085949
    22   6 C       23   6 C                                       1.3631506
    23   6 C       24   6 C                                       1.4103019
    24   6 C       25   6 C                                       1.4099628
    25   6 C       26   6 C                                       1.3666041
    26   6 C       27   6 C                                       1.4024694
    27   6 C       28   6 C                                       1.3677005
    24   6 C       29   6 C                                       1.4194588
    28   6 C       29   6 C                                       1.4111999
    21   6 C       30   6 C                                       1.3762571
    29   6 C       30   6 C                                       1.4260744
    31   6 C       32   6 C                                       1.3782271
    32   6 C       33   6 C                                       1.4077367
    33   6 C       34   6 C                                       1.3657375
    34   6 C       35   6 C                                       1.4106640
    35   6 C       36   6 C                                       1.4104054
    36   6 C       37   6 C                                       1.3667560
    37   6 C       38   6 C                                       1.4031290
    38   6 C       39   6 C                                       1.3674765
    31   6 C       40   6 C                                       1.4233377
    35   6 C       40   6 C                                       1.4205328
    39   6 C       40   6 C                                       1.4110677
    10  15 P       41   7 N                                       1.6670766 (max)
    32   6 C       41   7 N                                       1.4361610
    41   7 N       42   6 C                                       1.4528898
     1   6 C       43   1 H                                       1.0862330
     1   6 C       44   1 H                                       1.0876653
     1   6 C       45   1 H                                       1.0859763
     2   6 C       46   1 H                                       1.0908984
     2   6 C       47   1 H                                       1.0913564
     3   6 C       48   1 H                                       1.0994326
     4   6 C       49   1 H                                       1.0869067
     4   6 C       50   1 H                                       1.0856407
     4   6 C       51   1 H                                       1.0857371
     6   6 C       52   1 H                                       1.0930371
     7   6 C       53   1 H                                       1.0836211
     7   6 C       54   1 H                                       1.0863586
     7   6 C       55   1 H                                       1.0866869
     8   6 C       56   1 H                                       1.0932396
     8   6 C       57   1 H                                       1.0925087
     9   6 C       58   1 H                                       1.0855561
     9   6 C       59   1 H                                       1.0873821
     9   6 C       60   1 H                                       1.0866406
    14   6 C       61   1 H                                       1.0792224
    15   6 C       62   1 H                                       1.0787882
    16   6 C       63   1 H                                       1.0786510 (min)
    17   6 C       64   1 H                                       1.0790400
    18   6 C       65   1 H                                       1.0831198
    20   6 C       66   1 H                                       1.0889679
    20   6 C       67   1 H                                       1.0905733
    20   6 C       68   1 H                                       1.0958227
    22   6 C       69   1 H                                       1.0791951
    23   6 C       70   1 H                                       1.0792652
    25   6 C       71   1 H                                       1.0797651
    26   6 C       72   1 H                                       1.0789766
    27   6 C       73   1 H                                       1.0792300
    28   6 C       74   1 H                                       1.0790637
    33   6 C       75   1 H                                       1.0798465
    34   6 C       76   1 H                                       1.0791938
    36   6 C       77   1 H                                       1.0797243
    37   6 C       78   1 H                                       1.0790348
    38   6 C       79   1 H                                       1.0792450
    39   6 C       80   1 H                                       1.0793948
    42   6 C       81   1 H                                       1.0925687
    42   6 C       82   1 H                                       1.0901841
    42   6 C       83   1 H                                       1.0873701

 * 4 distinct bonds (by element types)

   Z      Z             #   av. dist./Å        max./Å        min./Å
   1 H    6 C          41     1.0851493     1.0994326     1.0786510
   6 C    6 C          34     1.4176519     1.5338382     1.3631506
   6 C    7 N           6     1.4542165     1.4749873     1.4308714
   7 N   15 P           3     1.6565674     1.6670766     1.6492768


optimized geometry written to: xtbopt.xyz


           -------------------------------------------------
          | TOTAL ENERGY             -115.465021045578 Eh   |
          | GRADIENT NORM               0.000037229467 Eh/α |
          | HOMO-LUMO GAP               2.679021646311 eV   |
           -------------------------------------------------

------------------------------------------------------------------------
 * finished run on 2024/12/16 at 17:25:11.930     
------------------------------------------------------------------------
 total:
 * wall-time:     0 d,  0 h,  2 min, 10.036 sec
 *  cpu-time:     0 d,  0 h, 17 min,  5.107 sec
 * ratio c/w:     7.883 speedup
 SCF:
 * wall-time:     0 d,  0 h,  0 min,  2.063 sec
 *  cpu-time:     0 d,  0 h,  0 min, 16.418 sec
 * ratio c/w:     7.958 speedup
 ANC optimizer:
 * wall-time:     0 d,  0 h,  2 min,  7.690 sec
 *  cpu-time:     0 d,  0 h, 16 min, 47.081 sec
 * ratio c/w:     7.887 speedup

