      -----------------------------------------------------------      
     |                   =====================                   |     
     |                           x T B                           |     
     |                   =====================                   |     
     |                         S. Grimme                         |     
     |          Mulliken Center for Theoretical Chemistry        |     
     |                    University of Bonn                     |     
      -----------------------------------------------------------      

   * xtb version 6.7.1 (edcfbbe) compiled by 'conda@3ef47c1a292c' on 2024-11-25

   xtb is free software: you can redistribute it and/or modify it under
   the terms of the GNU Lesser General Public License as published by
   the Free Software Foundation, either version 3 of the License, or
   (at your option) any later version.
   
   xtb is distributed in the hope that it will be useful,
   but WITHOUT ANY WARRANTY; without even the implied warranty of
   MERCHANTABILITY or FITNESS FOR A PARTICULAR PURPOSE.  See the
   GNU Lesser General Public License for more details.
   
   Cite this work as:
   * C. Bannwarth, E. Caldeweyher, S. Ehlert, A. Hansen, P. Pracht,
     J. Seibert, S. Spicher, S. Grimme, WIREs Comput. Mol. Sci., 2020, 11,
     e01493. DOI: 10.1002/wcms.1493
   
   for GFN2-xTB:
   * C. Bannwarth, S. Ehlert and S. Grimme., J. Chem. Theory Comput., 2019,
     15, 1652-1671. DOI: 10.1021/acs.jctc.8b01176
   for GFN1-xTB:
   * S. Grimme, C. Bannwarth, P. Shushkov, J. Chem. Theory Comput., 2017,
     13, 1989-2009. DOI: 10.1021/acs.jctc.7b00118
   for GFN0-xTB:
   * P. Pracht, E. Caldeweyher, S. Ehlert, S. Grimme, ChemRxiv, 2019, preprint.
     DOI: 10.26434/chemrxiv.8326202.v1
   for GFN-FF:
   * S. Spicher and S. Grimme, Angew. Chem. Int. Ed., 2020, 59, 15665-15673.
     DOI: 10.1002/anie.202004239
   
   for ALPB and GBSA implicit solvation:
   * S. Ehlert, M. Stahn, S. Spicher, S. Grimme, J. Chem. Theory Comput.,
     2021, 17, 4250-4261. DOI: 10.1021/acs.jctc.1c00471
   
   for ddCOSMO and CPCM-X implicit solvation:
   * M. Stahn, S. Ehlert, S. Grimme, J. Phys. Chem. A,
     2023, XX, XXXX-XXXX. DOI: 10.1021/acs.jpca.3c04382
   
   for DFT-D4:
   * E. Caldeweyher, C. Bannwarth and S. Grimme, J. Chem. Phys., 2017,
     147, 034112. DOI: 10.1063/1.4993215
   * E. Caldeweyher, S. Ehlert, A. Hansen, H. Neugebauer, S. Spicher,
     C. Bannwarth and S. Grimme, J. Chem. Phys., 2019, 150, 154122.
     DOI: 10.1063/1.5090222
   * E. Caldeweyher, J.-M. Mewes, S. Ehlert and S. Grimme, Phys. Chem. Chem. Phys.
     2020, 22, 8499-8512. DOI: 10.1039/D0CP00502A
   
   for sTDA-xTB:
   * S. Grimme and C. Bannwarth, J. Chem. Phys., 2016, 145, 054103.
     DOI: 10.1063/1.4959605
   
   in the mass-spec context:
   * V. Asgeirsson, C. Bauer and S. Grimme, Chem. Sci., 2017, 8, 4879.
     DOI: 10.1039/c7sc00601b
   * J. Koopman and S. Grimme, ACS Omega 2019, 4, 12, 15120-15133.
     DOI: 10.1021/acsomega.9b02011
   
   for metadynamics refer to:
   * S. Grimme, J. Chem. Theory Comput., 2019, 155, 2847-2862
     DOI: 10.1021/acs.jctc.9b00143
   
   for SPH calculations refer to:
   * S. Spicher and S. Grimme, J. Chem. Theory Comput., 2021, 17, 1701-1714
     DOI: 10.1021/acs.jctc.0c01306
   
   for ONIOM refer to:
   * C. Plett, A. Katbashev, S. Ehlert, S. Grimme, M. Bursch,
     Phys. Chem. Chem. Phys., 2023, 25, 17860-17868. DOI: 10.1039/D3CP02178E
   
   for DIPRO refer to:
   * J. Kohn, N. Gildemeister, S. Grimme, D. Fazzi, A. Hansen,
     J. Chem. Phys., 2023, just accepted.
   
   for PTB refer to:
   * S. Grimme, M. Mueller, A. Hansen, J. Chem. Phys., 2023, 158, 124111.
     DOI: 10.1063/5.0137838
   
   with help from (in alphabetical order)
   P. Atkinson, C. Bannwarth, F. Bohle, G. Brandenburg, E. Caldeweyher
   M. Checinski, S. Dohm, S. Ehlert, S. Ehrlich, I. Gerasimov, C. Hölzer
   A. Katbashev, J. Kohn, J. Koopman, C. Lavigne, S. Lehtola, F. März, M. Müller,
   F. Musil, H. Neugebauer, J. Pisarek, C. Plett, P. Pracht, F. Pultar,
   J. Seibert, P. Shushkov, S. Spicher, M. Stahn, M. Steiner, T. Strunk,
   J. Stückrath, T. Rose, and J. Unsleber
   
 * started run on 2024/12/16 at 18:04:30.036     
   ID    Z sym.   atoms
    1    6 C      1-4, 6-9, 13-18, 20-40, 42
    2    7 N      5, 19, 41
    3   15 P      10
    4   16 S      11, 12
    5    1 H      43-83

           -------------------------------------------------
          |                Calculation Setup                |
           -------------------------------------------------

          program call               : xtb --gfn2 --opt extreme -P 8 --charge 1 molecule.xyz
          hostname                   : node20
          coordinate file            : molecule.xyz
          omp threads                :                     8


           -------------------------------------------------
          |                 G F N 2 - x T B                 |
           -------------------------------------------------

        Reference                      10.1021/acs.jctc.8b01176
      * Hamiltonian:
        H0-scaling (s, p, d)           1.850000    2.230000    2.230000
        zeta-weighting                 0.500000
      * Dispersion:
        s8                             2.700000
        a1                             0.520000
        a2                             5.000000
        s9                             5.000000
      * Repulsion:
        kExp                           1.500000    1.000000
        rExp                           1.000000
      * Coulomb:
        alpha                          2.000000
        third order                    shell-resolved
        anisotropic                    true
        a3                             3.000000
        a5                             4.000000
        cn-shift                       1.200000
        cn-exp                         4.000000
        max-rad                        5.000000


          ...................................................
          :                      SETUP                      :
          :.................................................:
          :  # basis functions                 227          :
          :  # atomic orbitals                 224          :
          :  # shells                          128          :
          :  # electrons                       216          :
          :  max. iterations                   250          :
          :  Hamiltonian                  GFN2-xTB          :
          :  restarted?                      false          :
          :  GBSA solvation                  false          :
          :  PC potential                    false          :
          :  electronic temp.          300.0000000     K    :
          :  accuracy                    1.0000000          :
          :  -> integral cutoff          0.2500000E+02      :
          :  -> integral neglect         0.1000000E-07      :
          :  -> SCF convergence          0.1000000E-05 Eh   :
          :  -> wf. convergence          0.1000000E-03 e    :
          :  Broyden damping             0.4000000          :
          :  net charge                          1          :
          :  unpaired electrons                  0          :
          ...................................................

 iter      E             dE          RMSdq      gap      omega  full diag
   1   -117.0927200 -0.117093E+03  0.410E+00    1.72       0.0  T
   2   -117.2590516 -0.166332E+00  0.248E+00    2.05       1.0  T
   3   -117.2413296  0.177220E-01  0.126E+00    1.92       1.0  T
   4   -117.2624864 -0.211568E-01  0.625E-01    1.62       1.0  T
   5   -117.2864411 -0.239547E-01  0.265E-01    1.74       1.0  T
   6   -117.2887299 -0.228884E-02  0.139E-01    1.71       1.0  T
   7   -117.2902443 -0.151435E-02  0.466E-02    1.72       1.0  T
   8   -117.2902922 -0.478768E-04  0.221E-02    1.73       1.0  T
   9   -117.2902979 -0.573432E-05  0.104E-02    1.73       1.1  T
  10   -117.2902987 -0.862002E-06  0.613E-03    1.73       1.8  T
  11   -117.2902995 -0.722726E-06  0.331E-03    1.73       3.3  T
  12   -117.2902997 -0.214785E-06  0.199E-03    1.72       5.5  T
  13   -117.2902997 -0.263099E-07  0.112E-03    1.73       9.8  T
  14   -117.2902997 -0.348098E-07  0.476E-04    1.73      23.0  T
  15   -117.2902997 -0.842320E-09  0.243E-04    1.73      45.2  T

   *** convergence criteria satisfied after 15 iterations ***

         #    Occupation            Energy/Eh            Energy/eV
      -------------------------------------------------------------
         1        2.0000           -0.8594115             -23.3858
       ...           ...                  ...                  ...
       102        2.0000           -0.5024761             -13.6731
       103        2.0000           -0.4958819             -13.4936
       104        2.0000           -0.4948137             -13.4646
       105        2.0000           -0.4839595             -13.1692
       106        2.0000           -0.4829347             -13.1413
       107        2.0000           -0.4667395             -12.7006
       108        2.0000           -0.4528633             -12.3230 (HOMO)
       109                         -0.3894701             -10.5980 (LUMO)
       110                         -0.3696184             -10.0578
       111                         -0.3565151              -9.7013
       112                         -0.3482552              -9.4765
       113                         -0.3362038              -9.1486
       ...                                ...                  ...
       224                          1.0720783              29.1727
      -------------------------------------------------------------
                  HL-Gap            0.0633933 Eh            1.7250 eV
             Fermi-level           -0.4211667 Eh          -11.4605 eV

 SCC (total)                   0 d,  0 h,  0 min,  2.944 sec
 SCC setup                      ...        0 min,  0.000 sec (  0.013%)
 Dispersion                     ...        0 min,  0.002 sec (  0.058%)
 classical contributions        ...        0 min,  0.000 sec (  0.005%)
 integral evaluation            ...        0 min,  0.011 sec (  0.364%)
 iterations                     ...        0 min,  2.810 sec ( 95.418%)
 molecular gradient             ...        0 min,  0.117 sec (  3.972%)
 printout                       ...        0 min,  0.005 sec (  0.167%)

         :::::::::::::::::::::::::::::::::::::::::::::::::::::
         ::                     SUMMARY                     ::
         :::::::::::::::::::::::::::::::::::::::::::::::::::::
         :: total energy            -115.501383152402 Eh    ::
         :: gradient norm              0.131797641002 Eh/a0 ::
         :: HOMO-LUMO gap              1.725018260787 eV    ::
         ::.................................................::
         :: SCC energy              -117.283599110272 Eh    ::
         :: -> isotropic ES            0.077925971047 Eh    ::
         :: -> anisotropic ES          0.004846744098 Eh    ::
         :: -> anisotropic XC          0.072529371653 Eh    ::
         :: -> dispersion             -0.126604598862 Eh    ::
         :: repulsion energy           1.782215957871 Eh    ::
         :: add. restraining           0.000000000000 Eh    ::
         :: total charge               1.000000000000 e     ::
         :::::::::::::::::::::::::::::::::::::::::::::::::::::

      ----------------------------------------------------------- 
     |                   =====================                   |
     |                        A N C O P T                        |
     |                   =====================                   |
     |               Approximate Normal Coordinate               |
     |                Rational Function Optimizer                |
      ----------------------------------------------------------- 
      ----------------------------------------------------------- 
     |                   =====================                   |
     |                        A N C O P T                        |
     |                   =====================                   |
     |               Approximate Normal Coordinate               |
     |                Rational Function Optimizer                |
      ----------------------------------------------------------- 

          ...................................................
          :                      SETUP                      :
          :.................................................:
          :   optimization level           extreme          :
          :   max. optcycles                  1660          :
          :   ANC micro-cycles                  20          :
          :   degrees of freedom               243          :
          :.................................................:
          :   RF solver                   davidson          :
          :   write xtbopt.log                true          :
          :   linear?                        false          :
          :   energy convergence         0.5000000E-07 Eh   :
          :   grad. convergence          0.5000000E-04 Eh/α :
          :   maxmium RF displ.          1.0000000          :
          :   Hlow (freq-cutoff)         0.1000000E-01      :
          :   Hmax (freq-cutoff)         5.0000000          :
          :   S6 in model hess.         20.0000000          :
          ...................................................

generating ANC from exact Hessian ...
Using Lindh-Hessian (1995)
 Shifting diagonal of input Hessian by    9.8928793017518130E-003
 Lowest  eigenvalues of input Hessian
    0.000000    0.000000    0.000000    0.000000    0.000000    0.000000
    0.010000    0.010074    0.010141    0.010178    0.010324    0.010492
    0.010596    0.010730    0.010944    0.011006    0.011224    0.011328
 Highest eigenvalues
    1.944520    1.956358    1.992649    2.030050    2.068227    2.075269


........................................................................
.............................. CYCLE    1 ..............................
........................................................................

 iter      E             dE          RMSdq      gap      omega  full diag
   1   -117.2902997 -0.117290E+03  0.111E-04    1.73       0.0  T
   2   -117.2902997 -0.866436E-10  0.731E-05    1.73     150.2  T
   3   -117.2902997 -0.386251E-10  0.515E-05    1.73     213.1  T
     SCC iter.                  ...        0 min,  0.525 sec
     gradient                   ...        0 min,  0.130 sec
 * total energy  :  -115.5013832 Eh     change       -0.2164143E-08 Eh
   gradient norm :     0.1317975 Eh/α   predicted     0.0000000E+00 (-100.00%)
   displ. norm   :     0.3956466 α      lambda       -0.2591122E-01
   maximum displ.:     0.0877370 α      in ANC's #53, #20, #86, ...

........................................................................
.............................. CYCLE    2 ..............................
........................................................................

 iter      E             dE          RMSdq      gap      omega  full diag
   1   -117.3599583 -0.117360E+03  0.264E-01    1.84       0.0  T
   2   -117.3601010 -0.142631E-03  0.135E-01    1.90       1.0  T
   3   -117.3600268  0.741996E-04  0.471E-02    1.94       1.0  T
   4   -117.3601196 -0.928325E-04  0.221E-02    1.95       1.0  T
   5   -117.3601365 -0.168657E-04  0.111E-02    1.94       1.0  T
   6   -117.3601425 -0.598207E-05  0.475E-03    1.94       2.3  T
   7   -117.3601431 -0.650049E-06  0.305E-03    1.94       3.6  T
   8   -117.3601433 -0.167548E-06  0.169E-03    1.94       6.5  T
   9   -117.3601433 -0.308722E-07  0.874E-04    1.94      12.6  T
  10   -117.3601433 -0.790104E-08  0.379E-04    1.94      29.0  T
     SCC iter.                  ...        0 min,  1.895 sec
     gradient                   ...        0 min,  0.142 sec
 * total energy  :  -115.5198242 Eh     change       -0.1844104E-01 Eh
   gradient norm :     0.0571108 Eh/α   predicted    -0.1501028E-01 ( -18.60%)
   displ. norm   :     0.4086919 α      lambda       -0.9844945E-02
   maximum displ.:     0.1516436 α      in ANC's #20, #18, #53, ...

........................................................................
.............................. CYCLE    3 ..............................
........................................................................

 iter      E             dE          RMSdq      gap      omega  full diag
   1   -117.4018370 -0.117402E+03  0.196E-01    2.08       0.0  T
   2   -117.4018929 -0.558769E-04  0.103E-01    2.11       1.0  T
   3   -117.4018639  0.289647E-04  0.302E-02    2.14       1.0  T
   4   -117.4019020 -0.380857E-04  0.119E-02    2.14       1.0  T
   5   -117.4019066 -0.457714E-05  0.616E-03    2.13       1.8  T
   6   -117.4019082 -0.164581E-05  0.261E-03    2.13       4.2  T
   7   -117.4019084 -0.180656E-06  0.154E-03    2.13       7.1  T
   8   -117.4019085 -0.561574E-07  0.754E-04    2.13      14.5  T
   9   -117.4019085 -0.987460E-08  0.441E-04    2.13      24.9  T
     SCC iter.                  ...        0 min,  1.438 sec
     gradient                   ...        0 min,  0.116 sec
 * total energy  :  -115.5258739 Eh     change       -0.6049677E-02 Eh
   gradient norm :     0.0135329 Eh/α   predicted    -0.5744671E-02 (  -5.04%)
   displ. norm   :     0.3719911 α      lambda       -0.2272307E-02
   maximum displ.:     0.1794868 α      in ANC's #20, #18, #11, ...

........................................................................
.............................. CYCLE    4 ..............................
........................................................................

 iter      E             dE          RMSdq      gap      omega  full diag
   1   -117.4058453 -0.117406E+03  0.114E-01    2.17       0.0  T
   2   -117.4058648 -0.194951E-04  0.569E-02    2.19       1.0  T
   3   -117.4058593  0.551432E-05  0.169E-02    2.19       1.0  T
   4   -117.4058656 -0.637574E-05  0.830E-03    2.19       1.3  T
   5   -117.4058681 -0.241923E-05  0.365E-03    2.19       3.0  T
   6   -117.4058689 -0.784963E-06  0.153E-03    2.19       7.2  T
   7   -117.4058690 -0.122531E-06  0.552E-04    2.19      19.9  T
   8   -117.4058690 -0.118680E-07  0.264E-04    2.19      41.7  T
     SCC iter.                  ...        0 min,  1.133 sec
     gradient                   ...        0 min,  0.117 sec
 * total energy  :  -115.5275580 Eh     change       -0.1684139E-02 Eh
   gradient norm :     0.0121988 Eh/α   predicted    -0.1293404E-02 ( -23.20%)
   displ. norm   :     0.4686320 α      lambda       -0.1778541E-02
   maximum displ.:     0.2478481 α      in ANC's #20, #18, #11, ...

........................................................................
.............................. CYCLE    5 ..............................
........................................................................

 iter      E             dE          RMSdq      gap      omega  full diag
   1   -117.4074357 -0.117407E+03  0.905E-02    2.21       0.0  T
   2   -117.4074490 -0.133683E-04  0.512E-02    2.21       1.0  T
   3   -117.4074434  0.563277E-05  0.167E-02    2.21       1.0  T
   4   -117.4074517 -0.834110E-05  0.501E-03    2.21       2.2  T
   5   -117.4074519 -0.144459E-06  0.299E-03    2.21       3.7  T
   6   -117.4074522 -0.350780E-06  0.114E-03    2.21       9.7  T
   7   -117.4074522 -0.933154E-08  0.627E-04    2.21      17.5  T
   8   -117.4074523 -0.752576E-08  0.297E-04    2.21      36.9  T
     SCC iter.                  ...        0 min,  1.311 sec
     gradient                   ...        0 min,  0.117 sec
 * total energy  :  -115.5287769 Eh     change       -0.1218920E-02 Eh
   gradient norm :     0.0097271 Eh/α   predicted    -0.1084569E-02 ( -11.02%)
   displ. norm   :     0.3965840 α      lambda       -0.9211219E-03
   maximum displ.:     0.2127545 α      in ANC's #20, #11, #18, ...

........................................................................
.............................. CYCLE    6 ..............................
........................................................................

 iter      E             dE          RMSdq      gap      omega  full diag
   1   -117.4071920 -0.117407E+03  0.982E-02    2.20       0.0  T
   2   -117.4072045 -0.124950E-04  0.464E-02    2.21       1.0  T
   3   -117.4072047 -0.145450E-06  0.118E-02    2.21       1.0  T
   4   -117.4072047 -0.310459E-07  0.715E-03    2.21       1.5  T
   5   -117.4072063 -0.156518E-05  0.209E-03    2.21       5.3  T
   6   -117.4072064 -0.151343E-06  0.114E-03    2.21       9.6  T
   7   -117.4072065 -0.106952E-06  0.354E-04    2.21      31.0  T
   8   -117.4072065 -0.173715E-08  0.192E-04    2.21      57.3  T
     SCC iter.                  ...        0 min,  1.235 sec
     gradient                   ...        0 min,  0.117 sec
 * total energy  :  -115.5293590 Eh     change       -0.5820679E-03 Eh
   gradient norm :     0.0065191 Eh/α   predicted    -0.5330009E-03 (  -8.43%)
   displ. norm   :     0.2997286 α      lambda       -0.4882184E-03
   maximum displ.:     0.1468892 α      in ANC's #20, #16, #4, ...

........................................................................
.............................. CYCLE    7 ..............................
........................................................................

 iter      E             dE          RMSdq      gap      omega  full diag
   1   -117.4093351 -0.117409E+03  0.615E-02    2.22       0.0  T
   2   -117.4093399 -0.479442E-05  0.344E-02    2.21       1.0  T
   3   -117.4093384  0.151378E-05  0.788E-03    2.21       1.4  T
   4   -117.4093402 -0.185477E-05  0.368E-03    2.21       3.0  T
   5   -117.4093407 -0.489667E-06  0.175E-03    2.21       6.3  T
   6   -117.4093408 -0.475887E-07  0.106E-03    2.21      10.4  T
   7   -117.4093408 -0.302290E-07  0.607E-04    2.21      18.1  T
   8   -117.4093408 -0.429544E-08  0.365E-04    2.21      30.1  T
     SCC iter.                  ...        0 min,  1.387 sec
     gradient                   ...        0 min,  0.129 sec
 * total energy  :  -115.5296725 Eh     change       -0.3134786E-03 Eh
   gradient norm :     0.0061112 Eh/α   predicted    -0.2660564E-03 ( -15.13%)
   displ. norm   :     0.2369122 α      lambda       -0.2864446E-03
   maximum displ.:     0.0956763 α      in ANC's #4, #20, #16, ...

........................................................................
.............................. CYCLE    8 ..............................
........................................................................

 iter      E             dE          RMSdq      gap      omega  full diag
   1   -117.4115517 -0.117412E+03  0.436E-02    2.22       0.0  T
   2   -117.4115532 -0.152584E-05  0.238E-02    2.22       1.0  T
   3   -117.4115521  0.108875E-05  0.625E-03    2.22       1.8  T
   4   -117.4115535 -0.140398E-05  0.224E-03    2.22       4.9  T
   5   -117.4115537 -0.153350E-06  0.907E-04    2.22      12.1  T
   6   -117.4115537 -0.383023E-07  0.312E-04    2.22      35.2  T
     SCC iter.                  ...        0 min,  0.925 sec
     gradient                   ...        0 min,  0.118 sec
 * total energy  :  -115.5298806 Eh     change       -0.2080863E-03 Eh
   gradient norm :     0.0049771 Eh/α   predicted    -0.1512620E-03 ( -27.31%)
   displ. norm   :     0.2765170 α      lambda       -0.2606862E-03
   maximum displ.:     0.1286253 α      in ANC's #4, #16, #3, ...

........................................................................
.............................. CYCLE    9 ..............................
........................................................................

 iter      E             dE          RMSdq      gap      omega  full diag
   1   -117.4121802 -0.117412E+03  0.480E-02    2.21       0.0  T
   2   -117.4121828 -0.260736E-05  0.260E-02    2.22       1.0  T
   3   -117.4121815  0.128776E-05  0.759E-03    2.22       1.4  T
   4   -117.4121831 -0.154939E-05  0.349E-03    2.22       3.1  T
   5   -117.4121834 -0.299931E-06  0.149E-03    2.22       7.4  T
   6   -117.4121835 -0.156144E-06  0.538E-04    2.22      20.4  T
   7   -117.4121835 -0.131327E-07  0.286E-04    2.22      38.4  T
     SCC iter.                  ...        0 min,  1.159 sec
     gradient                   ...        0 min,  0.142 sec
 * total energy  :  -115.5300694 Eh     change       -0.1888711E-03 Eh
   gradient norm :     0.0037683 Eh/α   predicted    -0.1403127E-03 ( -25.71%)
   displ. norm   :     0.2868959 α      lambda       -0.2065849E-03
   maximum displ.:     0.1414116 α      in ANC's #4, #16, #3, ...

........................................................................
.............................. CYCLE   10 ..............................
........................................................................

 iter      E             dE          RMSdq      gap      omega  full diag
   1   -117.4122629 -0.117412E+03  0.380E-02    2.22       0.0  T
   2   -117.4122641 -0.122731E-05  0.210E-02    2.22       1.0  T
   3   -117.4122637  0.441993E-06  0.517E-03    2.22       2.1  T
   4   -117.4122643 -0.626703E-06  0.212E-03    2.22       5.2  T
   5   -117.4122644 -0.101787E-06  0.972E-04    2.22      11.3  T
   6   -117.4122645 -0.523801E-07  0.388E-04    2.22      28.3  T
     SCC iter.                  ...        0 min,  0.702 sec
     gradient                   ...        0 min,  0.118 sec
 * total energy  :  -115.5302263 Eh     change       -0.1568595E-03 Eh
   gradient norm :     0.0037979 Eh/α   predicted    -0.1117973E-03 ( -28.73%)
   displ. norm   :     0.3203799 α      lambda       -0.1961535E-03
   maximum displ.:     0.1630388 α      in ANC's #4, #3, #2, ...

........................................................................
.............................. CYCLE   11 ..............................
........................................................................

 iter      E             dE          RMSdq      gap      omega  full diag
   1   -117.4114433 -0.117411E+03  0.397E-02    2.22       0.0  T
   2   -117.4114445 -0.113620E-05  0.219E-02    2.22       1.0  T
   3   -117.4114440  0.479271E-06  0.492E-03    2.22       2.2  T
   4   -117.4114443 -0.309673E-06  0.285E-03    2.23       3.9  T
   5   -117.4114447 -0.420745E-06  0.984E-04    2.23      11.2  T
   6   -117.4114448 -0.720408E-07  0.336E-04    2.23      32.7  T
     SCC iter.                  ...        0 min,  0.712 sec
     gradient                   ...        0 min,  0.117 sec
 * total energy  :  -115.5303807 Eh     change       -0.1543840E-03 Eh
   gradient norm :     0.0043862 Eh/α   predicted    -0.1081452E-03 ( -29.95%)
   displ. norm   :     0.3613002 α      lambda       -0.1992238E-03
   maximum displ.:     0.1865107 α      in ANC's #4, #3, #2, ...

........................................................................
.............................. CYCLE   12 ..............................
........................................................................

 iter      E             dE          RMSdq      gap      omega  full diag
   1   -117.4108466 -0.117411E+03  0.459E-02    2.23       0.0  T
   2   -117.4108479 -0.124481E-05  0.249E-02    2.23       1.0  T
   3   -117.4108476  0.306635E-06  0.516E-03    2.23       2.1  T
   4   -117.4108475  0.704668E-07  0.332E-03    2.23       3.3  T
   5   -117.4108482 -0.660352E-06  0.793E-04    2.23      13.8  T
   6   -117.4108482 -0.466383E-07  0.354E-04    2.23      31.0  T
     SCC iter.                  ...        0 min,  0.929 sec
     gradient                   ...        0 min,  0.117 sec
 * total energy  :  -115.5305386 Eh     change       -0.1579094E-03 Eh
   gradient norm :     0.0044890 Eh/α   predicted    -0.1126154E-03 ( -28.68%)
   displ. norm   :     0.3922990 α      lambda       -0.1937249E-03
   maximum displ.:     0.2054485 α      in ANC's #4, #2, #3, ...

........................................................................
.............................. CYCLE   13 ..............................
........................................................................

 iter      E             dE          RMSdq      gap      omega  full diag
   1   -117.4104374 -0.117410E+03  0.520E-02    2.24       0.0  T
   2   -117.4104388 -0.139724E-05  0.288E-02    2.24       1.0  T
   3   -117.4104380  0.805537E-06  0.596E-03    2.24       1.8  T
   4   -117.4104385 -0.491818E-06  0.357E-03    2.24       3.1  T
   5   -117.4104391 -0.630177E-06  0.113E-03    2.24       9.7  T
   6   -117.4104392 -0.101395E-06  0.451E-04    2.24      24.3  T
   7   -117.4104392 -0.786331E-08  0.253E-04    2.24      43.4  T
     SCC iter.                  ...        0 min,  1.105 sec
     gradient                   ...        0 min,  0.117 sec
 * total energy  :  -115.5306929 Eh     change       -0.1543209E-03 Eh
   gradient norm :     0.0037672 Eh/α   predicted    -0.1117747E-03 ( -27.57%)
   displ. norm   :     0.4087104 α      lambda       -0.1859765E-03
   maximum displ.:     0.2166022 α      in ANC's #4, #2, #3, ...

........................................................................
.............................. CYCLE   14 ..............................
........................................................................

 iter      E             dE          RMSdq      gap      omega  full diag
   1   -117.4107399 -0.117411E+03  0.571E-02    2.25       0.0  T
   2   -117.4107412 -0.134173E-05  0.319E-02    2.25       1.0  T
   3   -117.4107401  0.110086E-05  0.629E-03    2.25       1.7  T
   4   -117.4107409 -0.796239E-06  0.363E-03    2.25       3.0  T
   5   -117.4107416 -0.642098E-06  0.114E-03    2.25       9.6  T
   6   -117.4107417 -0.110728E-06  0.449E-04    2.25      24.5  T
   7   -117.4107417 -0.730034E-08  0.257E-04    2.25      42.7  T
     SCC iter.                  ...        0 min,  1.238 sec
     gradient                   ...        0 min,  0.122 sec
 * total energy  :  -115.5308429 Eh     change       -0.1499560E-03 Eh
   gradient norm :     0.0034263 Eh/α   predicted    -0.1085230E-03 ( -27.63%)
   displ. norm   :     0.4327868 α      lambda       -0.1870372E-03
   maximum displ.:     0.2315008 α      in ANC's #4, #2, #3, ...

........................................................................
.............................. CYCLE   15 ..............................
........................................................................

 iter      E             dE          RMSdq      gap      omega  full diag
   1   -117.4115008 -0.117412E+03  0.610E-02    2.26       0.0  T
   2   -117.4115021 -0.127506E-05  0.343E-02    2.27       1.0  T
   3   -117.4115004  0.161732E-05  0.653E-03    2.27       1.7  T
   4   -117.4115018 -0.137700E-05  0.355E-03    2.27       3.1  T
   5   -117.4115024 -0.618725E-06  0.115E-03    2.27       9.5  T
   6   -117.4115025 -0.117172E-06  0.430E-04    2.27      25.5  T
   7   -117.4115026 -0.600647E-08  0.247E-04    2.27      44.5  T
     SCC iter.                  ...        0 min,  1.135 sec
     gradient                   ...        0 min,  0.126 sec
 * total energy  :  -115.5309955 Eh     change       -0.1525921E-03 Eh
   gradient norm :     0.0040188 Eh/α   predicted    -0.1110376E-03 ( -27.23%)
   displ. norm   :     0.4638511 α      lambda       -0.1919686E-03
   maximum displ.:     0.2494607 α      in ANC's #4, #2, #3, ...

........................................................................
.............................. CYCLE   16 ..............................
........................................................................

 iter      E             dE          RMSdq      gap      omega  full diag
   1   -117.4123775 -0.117412E+03  0.638E-02    2.28       0.0  T
   2   -117.4123788 -0.133277E-05  0.360E-02    2.28       1.0  T
   3   -117.4123767  0.204033E-05  0.682E-03    2.28       1.6  T
   4   -117.4123786 -0.181651E-05  0.362E-03    2.28       3.0  T
   5   -117.4123792 -0.662890E-06  0.113E-03    2.28       9.7  T
   6   -117.4123793 -0.119582E-06  0.372E-04    2.28      29.5  T
   7   -117.4123794 -0.414312E-08  0.200E-04    2.28      54.9  T
     SCC iter.                  ...        0 min,  1.055 sec
     gradient                   ...        0 min,  0.152 sec
 * total energy  :  -115.5311527 Eh     change       -0.1571922E-03 Eh
   gradient norm :     0.0044207 Eh/α   predicted    -0.1166393E-03 ( -25.80%)
   displ. norm   :     0.4858836 α      lambda       -0.1881379E-03
   maximum displ.:     0.2624209 α      in ANC's #4, #2, #3, ...

........................................................................
.............................. CYCLE   17 ..............................
........................................................................

 iter      E             dE          RMSdq      gap      omega  full diag
   1   -117.4128539 -0.117413E+03  0.637E-02    2.29       0.0  T
   2   -117.4128555 -0.159575E-05  0.357E-02    2.29       1.0  T
   3   -117.4128533  0.224144E-05  0.732E-03    2.29       1.5  T
   4   -117.4128552 -0.199468E-05  0.383E-03    2.29       2.9  T
   5   -117.4128560 -0.741627E-06  0.124E-03    2.29       8.9  T
   6   -117.4128561 -0.139561E-06  0.375E-04    2.29      29.3  T
   7   -117.4128561 -0.502317E-08  0.192E-04    2.29      57.1  T
     SCC iter.                  ...        0 min,  1.285 sec
     gradient                   ...        0 min,  0.143 sec
 * total energy  :  -115.5313063 Eh     change       -0.1536256E-03 Eh
   gradient norm :     0.0039234 Eh/α   predicted    -0.1162785E-03 ( -24.31%)
   displ. norm   :     0.4820696 α      lambda       -0.1735363E-03
   maximum displ.:     0.2603353 α      in ANC's #4, #2, #3, ...

........................................................................
.............................. CYCLE   18 ..............................
........................................................................

 iter      E             dE          RMSdq      gap      omega  full diag
   1   -117.4131427 -0.117413E+03  0.600E-02    2.30       0.0  T
   2   -117.4131444 -0.174490E-05  0.333E-02    2.30       1.0  T
   3   -117.4131424  0.201459E-05  0.740E-03    2.30       1.5  T
   4   -117.4131442 -0.177810E-05  0.387E-03    2.30       2.8  T
   5   -117.4131449 -0.728781E-06  0.131E-03    2.30       8.4  T
   6   -117.4131450 -0.149171E-06  0.392E-04    2.30      28.0  T
   7   -117.4131451 -0.600186E-08  0.210E-04    2.30      52.3  T
     SCC iter.                  ...        0 min,  1.189 sec
     gradient                   ...        0 min,  0.120 sec
 * total energy  :  -115.5314461 Eh     change       -0.1398191E-03 Eh
   gradient norm :     0.0030243 Eh/α   predicted    -0.1069341E-03 ( -23.52%)
   displ. norm   :     0.4714632 α      lambda       -0.1492462E-03
   maximum displ.:     0.2525603 α      in ANC's #4, #2, #3, ...

........................................................................
.............................. CYCLE   19 ..............................
........................................................................

 iter      E             dE          RMSdq      gap      omega  full diag
   1   -117.4127805 -0.117413E+03  0.562E-02    2.31       0.0  T
   2   -117.4127822 -0.173037E-05  0.310E-02    2.31       1.0  T
   3   -117.4127805  0.174649E-05  0.721E-03    2.31       1.5  T
   4   -117.4127819 -0.149016E-05  0.383E-03    2.31       2.9  T
   5   -117.4127827 -0.717535E-06  0.131E-03    2.31       8.4  T
   6   -117.4127828 -0.149741E-06  0.380E-04    2.31      28.9  T
   7   -117.4127828 -0.524287E-08  0.212E-04    2.31      51.8  T
     SCC iter.                  ...        0 min,  1.191 sec
     gradient                   ...        0 min,  0.127 sec
 * total energy  :  -115.5315632 Eh     change       -0.1171255E-03 Eh
   gradient norm :     0.0029528 Eh/α   predicted    -0.9121539E-04 ( -22.12%)
   displ. norm   :     0.4186950 α      lambda       -0.1173734E-03
   maximum displ.:     0.2188438 α      in ANC's #4, #2, #3, ...

........................................................................
.............................. CYCLE   20 ..............................
........................................................................

 iter      E             dE          RMSdq      gap      omega  full diag
   1   -117.4134091 -0.117413E+03  0.487E-02    2.31       0.0  T
   2   -117.4134104 -0.129034E-05  0.269E-02    2.31       1.0  T
   3   -117.4134090  0.141745E-05  0.627E-03    2.31       1.8  T
   4   -117.4134101 -0.118517E-05  0.338E-03    2.31       3.2  T
   5   -117.4134107 -0.592676E-06  0.115E-03    2.31       9.5  T
   6   -117.4134109 -0.114456E-06  0.332E-04    2.31      33.0  T
   7   -117.4134109 -0.368212E-08  0.187E-04    2.31      58.8  T
     SCC iter.                  ...        0 min,  0.971 sec
     gradient                   ...        0 min,  0.117 sec
 * total energy  :  -115.5316495 Eh     change       -0.8625269E-04 Eh
   gradient norm :     0.0030926 Eh/α   predicted    -0.6897979E-04 ( -20.03%)
   displ. norm   :     0.3724316 α      lambda       -0.7415748E-04
   maximum displ.:     0.1911352 α      in ANC's #4, #2, #3, ...
 * RMSD in coord.:     0.6430730 α      energy gain  -0.3026632E-01 Eh

generating ANC from exact Hessian ...
Using Lindh-Hessian (1995)
 Shifting diagonal of input Hessian by    9.9551543157827618E-003
 Lowest  eigenvalues of input Hessian
    0.000000    0.000000    0.000000    0.000000    0.000000    0.000000
    0.010000    0.010054    0.010200    0.010308    0.010387    0.010445
    0.010603    0.010639    0.010867    0.010984    0.011109    0.011284
 Highest eigenvalues
    1.999864    2.011688    2.026800    2.074111    2.115107    2.125912


........................................................................
.............................. CYCLE   21 ..............................
........................................................................

 iter      E             dE          RMSdq      gap      omega  full diag
   1   -117.4114342 -0.117411E+03  0.437E-02    2.31       0.0  T
   2   -117.4114352 -0.956247E-06  0.243E-02    2.32       1.0  T
   3   -117.4114340  0.119171E-05  0.540E-03    2.32       2.0  T
   4   -117.4114348 -0.853527E-06  0.315E-03    2.32       3.5  T
   5   -117.4114354 -0.629644E-06  0.860E-04    2.32      12.8  T
   6   -117.4114355 -0.612811E-07  0.277E-04    2.32      39.6  T
     SCC iter.                  ...        0 min,  0.951 sec
     gradient                   ...        0 min,  0.117 sec
 * total energy  :  -115.5316975 Eh     change       -0.4803060E-04 Eh
   gradient norm :     0.0032106 Eh/α   predicted     0.0000000E+00 (-100.00%)
   displ. norm   :     0.0346352 α      lambda       -0.1008322E-04
   maximum displ.:     0.0125633 α      in ANC's #7, #5, #11, ...

........................................................................
.............................. CYCLE   22 ..............................
........................................................................

 iter      E             dE          RMSdq      gap      omega  full diag
   1   -117.4138492 -0.117414E+03  0.923E-03    2.32       0.0  T
   2   -117.4138494 -0.180309E-06  0.480E-03    2.32       2.3  T
   3   -117.4138494  0.421393E-07  0.150E-03    2.32       7.3  T
   4   -117.4138494 -0.545563E-07  0.729E-04    2.32      15.1  T
   5   -117.4138494 -0.123767E-07  0.322E-04    2.32      34.1  T
     SCC iter.                  ...        0 min,  0.784 sec
     gradient                   ...        0 min,  0.117 sec
 * total energy  :  -115.5317239 Eh     change       -0.2643872E-04 Eh
   gradient norm :     0.0013868 Eh/α   predicted    -0.1772974E-04 ( -32.94%)
   displ. norm   :     0.1157637 α      lambda       -0.3769373E-04
   maximum displ.:     0.0420119 α      in ANC's #5, #7, #17, ...

........................................................................
.............................. CYCLE   23 ..............................
........................................................................

 iter      E             dE          RMSdq      gap      omega  full diag
   1   -117.4170177 -0.117417E+03  0.194E-02    2.32       0.0  T
   2   -117.4170181 -0.341574E-06  0.110E-02    2.32       1.0  T
   3   -117.4170177  0.316936E-06  0.276E-03    2.32       4.0  T
   4   -117.4170181 -0.316435E-06  0.129E-03    2.32       8.5  T
   5   -117.4170181 -0.689050E-07  0.609E-04    2.32      18.0  T
   6   -117.4170181 -0.255358E-07  0.234E-04    2.32      46.8  T
     SCC iter.                  ...        0 min,  0.992 sec
     gradient                   ...        0 min,  0.118 sec
 * total energy  :  -115.5317541 Eh     change       -0.3014895E-04 Eh
   gradient norm :     0.0023414 Eh/α   predicted    -0.1895960E-04 ( -37.11%)
   displ. norm   :     0.0589051 α      lambda       -0.2003386E-04
   maximum displ.:     0.0193271 α      in ANC's #5, #7, #2, ...

........................................................................
.............................. CYCLE   24 ..............................
........................................................................

 iter      E             dE          RMSdq      gap      omega  full diag
   1   -117.4163393 -0.117416E+03  0.135E-02    2.32       0.0  T
   2   -117.4163395 -0.229266E-06  0.665E-03    2.32       1.7  T
   3   -117.4163395  0.398959E-07  0.203E-03    2.32       5.4  T
   4   -117.4163395 -0.652906E-07  0.963E-04    2.32      11.4  T
   5   -117.4163396 -0.176368E-07  0.322E-04    2.32      34.1  T
     SCC iter.                  ...        0 min,  0.846 sec
     gradient                   ...        0 min,  0.133 sec
 * total energy  :  -115.5317706 Eh     change       -0.1652484E-04 Eh
   gradient norm :     0.0020306 Eh/α   predicted    -0.1005348E-04 ( -39.16%)
   displ. norm   :     0.1898995 α      lambda       -0.5299478E-04
   maximum displ.:     0.0614197 α      in ANC's #5, #2, #7, ...

........................................................................
.............................. CYCLE   25 ..............................
........................................................................

 iter      E             dE          RMSdq      gap      omega  full diag
   1   -117.4134390 -0.117413E+03  0.314E-02    2.32       0.0  T
   2   -117.4134395 -0.534424E-06  0.178E-02    2.32       1.0  T
   3   -117.4134391  0.349185E-06  0.326E-03    2.32       3.4  T
   4   -117.4134394 -0.244719E-06  0.185E-03    2.33       5.9  T
   5   -117.4134396 -0.225477E-06  0.520E-04    2.32      21.1  T
   6   -117.4134396 -0.145911E-07  0.261E-04    2.32      42.1  T
     SCC iter.                  ...        0 min,  1.161 sec
     gradient                   ...        0 min,  0.117 sec
 * total energy  :  -115.5318006 Eh     change       -0.2999821E-04 Eh
   gradient norm :     0.0021246 Eh/α   predicted    -0.2745309E-04 (  -8.48%)
   displ. norm   :     0.0588264 α      lambda       -0.1399203E-04
   maximum displ.:     0.0229385 α      in ANC's #2, #8, #5, ...

........................................................................
.............................. CYCLE   26 ..............................
........................................................................

 iter      E             dE          RMSdq      gap      omega  full diag
   1   -117.4131808 -0.117413E+03  0.101E-02    2.32       0.0  T
   2   -117.4131808 -0.404017E-07  0.588E-03    2.33       1.9  T
   3   -117.4131808  0.688531E-07  0.108E-03    2.33      10.2  T
   4   -117.4131809 -0.771489E-07  0.422E-04    2.33      26.0  T
   5   -117.4131809 -0.520699E-08  0.247E-04    2.33      44.5  T
     SCC iter.                  ...        0 min,  0.862 sec
     gradient                   ...        0 min,  0.117 sec
 * total energy  :  -115.5318128 Eh     change       -0.1223297E-04 Eh
   gradient norm :     0.0016996 Eh/α   predicted    -0.7021908E-05 ( -42.60%)
   displ. norm   :     0.2668061 α      lambda       -0.4526331E-04
   maximum displ.:     0.1103825 α      in ANC's #2, #8, #13, ...

........................................................................
.............................. CYCLE   27 ..............................
........................................................................

 iter      E             dE          RMSdq      gap      omega  full diag
   1   -117.4134756 -0.117413E+03  0.475E-02    2.32       0.0  T
   2   -117.4134766 -0.102100E-05  0.272E-02    2.33       1.0  T
   3   -117.4134755  0.114122E-05  0.506E-03    2.33       2.2  T
   4   -117.4134767 -0.122915E-05  0.224E-03    2.33       4.9  T
   5   -117.4134769 -0.193448E-06  0.937E-04    2.33      11.7  T
   6   -117.4134769 -0.621614E-07  0.410E-04    2.33      26.8  T
     SCC iter.                  ...        0 min,  1.040 sec
     gradient                   ...        0 min,  0.123 sec
 * total energy  :  -115.5318423 Eh     change       -0.2942811E-04 Eh
   gradient norm :     0.0025785 Eh/α   predicted    -0.2334871E-04 ( -20.66%)
   displ. norm   :     0.0902473 α      lambda       -0.2264331E-04
   maximum displ.:     0.0367828 α      in ANC's #2, #8, #17, ...

........................................................................
.............................. CYCLE   28 ..............................
........................................................................

 iter      E             dE          RMSdq      gap      omega  full diag
   1   -117.4137194 -0.117414E+03  0.186E-02    2.33       0.0  T
   2   -117.4137200 -0.638333E-06  0.990E-03    2.33       1.1  T
   3   -117.4137198  0.254675E-06  0.326E-03    2.33       3.4  T
   4   -117.4137199 -0.108885E-06  0.194E-03    2.33       5.6  T
   5   -117.4137201 -0.247127E-06  0.807E-04    2.33      13.6  T
   6   -117.4137201 -0.208966E-07  0.448E-04    2.33      24.5  T
     SCC iter.                  ...        0 min,  0.831 sec
     gradient                   ...        0 min,  0.153 sec
 * total energy  :  -115.5318526 Eh     change       -0.1033884E-04 Eh
   gradient norm :     0.0023220 Eh/α   predicted    -0.1141633E-04 (  10.42%)
   displ. norm   :     0.0470708 α      lambda       -0.1415903E-04
   maximum displ.:     0.0222334 α      in ANC's #2, #8, #17, ...

........................................................................
.............................. CYCLE   29 ..............................
........................................................................

 iter      E             dE          RMSdq      gap      omega  full diag
   1   -117.4141511 -0.117414E+03  0.753E-03    2.33       0.0  T
   2   -117.4141512 -0.663478E-07  0.421E-03    2.33       2.6  T
   3   -117.4141511  0.627890E-07  0.122E-03    2.33       9.0  T
   4   -117.4141512 -0.562737E-07  0.605E-04    2.33      18.2  T
   5   -117.4141512 -0.194681E-07  0.249E-04    2.33      44.1  T
     SCC iter.                  ...        0 min,  0.546 sec
     gradient                   ...        0 min,  0.163 sec
 * total energy  :  -115.5318643 Eh     change       -0.1168881E-04 Eh
   gradient norm :     0.0013181 Eh/α   predicted    -0.7096762E-05 ( -39.29%)
   displ. norm   :     0.1673984 α      lambda       -0.2624975E-04
   maximum displ.:     0.0811214 α      in ANC's #2, #8, #17, ...

........................................................................
.............................. CYCLE   30 ..............................
........................................................................

 iter      E             dE          RMSdq      gap      omega  full diag
   1   -117.4161139 -0.117416E+03  0.238E-02    2.33       0.0  T
   2   -117.4161145 -0.535235E-06  0.138E-02    2.33       1.0  T
   3   -117.4161133  0.119047E-05  0.407E-03    2.33       2.7  T
   4   -117.4161145 -0.125182E-05  0.140E-03    2.33       7.9  T
   5   -117.4161147 -0.123694E-06  0.571E-04    2.33      19.2  T
   6   -117.4161147 -0.127239E-07  0.263E-04    2.33      41.7  T
     SCC iter.                  ...        0 min,  0.745 sec
     gradient                   ...        0 min,  0.145 sec
 * total energy  :  -115.5318799 Eh     change       -0.1558351E-04 Eh
   gradient norm :     0.0024843 Eh/α   predicted    -0.1329096E-04 ( -14.71%)
   displ. norm   :     0.1226337 α      lambda       -0.1419658E-04
   maximum displ.:     0.0536415 α      in ANC's #2, #8, #17, ...

........................................................................
.............................. CYCLE   31 ..............................
........................................................................

 iter      E             dE          RMSdq      gap      omega  full diag
   1   -117.4147396 -0.117415E+03  0.185E-02    2.33       0.0  T
   2   -117.4147398 -0.202638E-06  0.107E-02    2.33       1.0  T
   3   -117.4147395  0.273903E-06  0.201E-03    2.33       5.5  T
   4   -117.4147398 -0.260410E-06  0.991E-04    2.33      11.1  T
   5   -117.4147399 -0.651038E-07  0.369E-04    2.33      29.7  T
     SCC iter.                  ...        0 min,  0.629 sec
     gradient                   ...        0 min,  0.124 sec
 * total energy  :  -115.5318872 Eh     change       -0.7345952E-05 Eh
   gradient norm :     0.0019559 Eh/α   predicted    -0.7208296E-05 (  -1.87%)
   displ. norm   :     0.0637204 α      lambda       -0.1049927E-04
   maximum displ.:     0.0323581 α      in ANC's #2, #16, #8, ...

........................................................................
.............................. CYCLE   32 ..............................
........................................................................

 iter      E             dE          RMSdq      gap      omega  full diag
   1   -117.4143221 -0.117414E+03  0.106E-02    2.33       0.0  T
   2   -117.4143222 -0.121510E-06  0.623E-03    2.33       1.8  T
   3   -117.4143221  0.962166E-07  0.160E-03    2.33       6.9  T
   4   -117.4143222 -0.123256E-06  0.651E-04    2.33      16.9  T
   5   -117.4143222 -0.753968E-08  0.398E-04    2.33      27.6  T
     SCC iter.                  ...        0 min,  0.583 sec
     gradient                   ...        0 min,  0.117 sec
 * total energy  :  -115.5318976 Eh     change       -0.1037460E-04 Eh
   gradient norm :     0.0005458 Eh/α   predicted    -0.5262016E-05 ( -49.28%)
   displ. norm   :     0.0914546 α      lambda       -0.5995886E-05
   maximum displ.:     0.0484071 α      in ANC's #2, #16, #6, ...

........................................................................
.............................. CYCLE   33 ..............................
........................................................................

 iter      E             dE          RMSdq      gap      omega  full diag
   1   -117.4142828 -0.117414E+03  0.124E-02    2.33       0.0  T
   2   -117.4142829 -0.706655E-07  0.714E-03    2.33       1.5  T
   3   -117.4142828  0.135064E-06  0.145E-03    2.33       7.6  T
   4   -117.4142829 -0.142285E-06  0.661E-04    2.33      16.6  T
   5   -117.4142829 -0.196881E-07  0.350E-04    2.33      31.4  T
     SCC iter.                  ...        0 min,  0.586 sec
     gradient                   ...        0 min,  0.117 sec
 * total energy  :  -115.5319041 Eh     change       -0.6532880E-05 Eh
   gradient norm :     0.0006035 Eh/α   predicted    -0.3013865E-05 ( -53.87%)
   displ. norm   :     0.0870191 α      lambda       -0.4407316E-05
   maximum displ.:     0.0476627 α      in ANC's #2, #6, #16, ...

........................................................................
.............................. CYCLE   34 ..............................
........................................................................

 iter      E             dE          RMSdq      gap      omega  full diag
   1   -117.4143789 -0.117414E+03  0.112E-02    2.33       0.0  T
   2   -117.4143790 -0.645856E-07  0.633E-03    2.33       1.7  T
   3   -117.4143789  0.955265E-07  0.137E-03    2.33       8.0  T
   4   -117.4143790 -0.890311E-07  0.698E-04    2.33      15.7  T
   5   -117.4143790 -0.270067E-07  0.304E-04    2.33      36.1  T
     SCC iter.                  ...        0 min,  0.963 sec
     gradient                   ...        0 min,  0.144 sec
 * total energy  :  -115.5319089 Eh     change       -0.4763193E-05 Eh
   gradient norm :     0.0005601 Eh/α   predicted    -0.2215632E-05 ( -53.48%)
   displ. norm   :     0.0718900 α      lambda       -0.3158666E-05
   maximum displ.:     0.0407427 α      in ANC's #2, #6, #16, ...

........................................................................
.............................. CYCLE   35 ..............................
........................................................................

 iter      E             dE          RMSdq      gap      omega  full diag
   1   -117.4144359 -0.117414E+03  0.891E-03    2.33       0.0  T
   2   -117.4144359 -0.349290E-07  0.502E-03    2.33       2.2  T
   3   -117.4144359  0.594374E-07  0.111E-03    2.33       9.9  T
   4   -117.4144359 -0.584995E-07  0.514E-04    2.33      21.3  T
   5   -117.4144359 -0.119644E-07  0.236E-04    2.33      46.5  T
     SCC iter.                  ...        0 min,  0.739 sec
     gradient                   ...        0 min,  0.123 sec
 * total energy  :  -115.5319127 Eh     change       -0.3748076E-05 Eh
   gradient norm :     0.0004312 Eh/α   predicted    -0.1587092E-05 ( -57.66%)
   displ. norm   :     0.0817572 α      lambda       -0.4152154E-05
   maximum displ.:     0.0445539 α      in ANC's #2, #6, #16, ...

........................................................................
.............................. CYCLE   36 ..............................
........................................................................

 iter      E             dE          RMSdq      gap      omega  full diag
   1   -117.4145980 -0.117415E+03  0.101E-02    2.34       0.0  T
   2   -117.4145980 -0.459908E-07  0.573E-03    2.34       1.9  T
   3   -117.4145979  0.746270E-07  0.123E-03    2.34       8.9  T
   4   -117.4145980 -0.774716E-07  0.517E-04    2.34      21.2  T
   5   -117.4145980 -0.108614E-07  0.232E-04    2.34      47.3  T
     SCC iter.                  ...        0 min,  0.570 sec
     gradient                   ...        0 min,  0.159 sec
 * total energy  :  -115.5319176 Eh     change       -0.4965533E-05 Eh
   gradient norm :     0.0004632 Eh/α   predicted    -0.2083252E-05 ( -58.05%)
   displ. norm   :     0.1208832 α      lambda       -0.5671922E-05
   maximum displ.:     0.0670498 α      in ANC's #2, #6, #16, ...

........................................................................
.............................. CYCLE   37 ..............................
........................................................................

 iter      E             dE          RMSdq      gap      omega  full diag
   1   -117.4144068 -0.117414E+03  0.148E-02    2.34       0.0  T
   2   -117.4144069 -0.841699E-07  0.852E-03    2.34       1.3  T
   3   -117.4144067  0.166445E-06  0.170E-03    2.34       6.5  T
   4   -117.4144069 -0.183541E-06  0.634E-04    2.34      17.3  T
   5   -117.4144069 -0.135927E-07  0.321E-04    2.34      34.2  T
     SCC iter.                  ...        0 min,  0.834 sec
     gradient                   ...        0 min,  0.118 sec
 * total energy  :  -115.5319240 Eh     change       -0.6353828E-05 Eh
   gradient norm :     0.0005544 Eh/α   predicted    -0.2859377E-05 ( -55.00%)
   displ. norm   :     0.1119603 α      lambda       -0.4376982E-05
   maximum displ.:     0.0601802 α      in ANC's #2, #6, #7, ...

........................................................................
.............................. CYCLE   38 ..............................
........................................................................

 iter      E             dE          RMSdq      gap      omega  full diag
   1   -117.4145567 -0.117415E+03  0.143E-02    2.34       0.0  T
   2   -117.4145568 -0.784239E-07  0.828E-03    2.34       1.3  T
   3   -117.4145567  0.151295E-06  0.151E-03    2.34       7.2  T
   4   -117.4145568 -0.174689E-06  0.489E-04    2.34      22.5  T
   5   -117.4145569 -0.727643E-08  0.229E-04    2.34      47.9  T
     SCC iter.                  ...        0 min,  0.737 sec
     gradient                   ...        0 min,  0.117 sec
 * total energy  :  -115.5319285 Eh     change       -0.4536580E-05 Eh
   gradient norm :     0.0005052 Eh/α   predicted    -0.2202737E-05 ( -51.44%)
   displ. norm   :     0.0778965 α      lambda       -0.2569629E-05
   maximum displ.:     0.0452318 α      in ANC's #2, #6, #1, ...

........................................................................
.............................. CYCLE   39 ..............................
........................................................................

 iter      E             dE          RMSdq      gap      omega  full diag
   1   -117.4144030 -0.117414E+03  0.968E-03    2.34       0.0  T
   2   -117.4144030 -0.407109E-07  0.561E-03    2.34       2.0  T
   3   -117.4144030  0.551528E-07  0.960E-04    2.34      11.4  T
   4   -117.4144030 -0.649973E-07  0.354E-04    2.34      31.0  T
     SCC iter.                  ...        0 min,  0.576 sec
     gradient                   ...        0 min,  0.117 sec
 * total energy  :  -115.5319312 Eh     change       -0.2691228E-05 Eh
   gradient norm :     0.0003776 Eh/α   predicted    -0.1292101E-05 ( -51.99%)
   displ. norm   :     0.0567957 α      lambda       -0.2042711E-05
   maximum displ.:     0.0322013 α      in ANC's #2, #6, #1, ...

........................................................................
.............................. CYCLE   40 ..............................
........................................................................

 iter      E             dE          RMSdq      gap      omega  full diag
   1   -117.4145951 -0.117415E+03  0.720E-03    2.34       0.0  T
   2   -117.4145951 -0.217755E-07  0.414E-03    2.34       2.7  T
   3   -117.4145950  0.845463E-07  0.105E-03    2.34      10.5  T
   4   -117.4145951 -0.903613E-07  0.362E-04    2.34      30.4  T
   5   -117.4145951 -0.542030E-08  0.151E-04    2.34      72.8  T
     SCC iter.                  ...        0 min,  0.793 sec
     gradient                   ...        0 min,  0.122 sec
 * total energy  :  -115.5319335 Eh     change       -0.2304883E-05 Eh
   gradient norm :     0.0002532 Eh/α   predicted    -0.1027301E-05 ( -55.43%)
   displ. norm   :     0.0651040 α      lambda       -0.2215046E-05
   maximum displ.:     0.0357080 α      in ANC's #2, #6, #1, ...

........................................................................
.............................. CYCLE   41 ..............................
........................................................................

 iter      E             dE          RMSdq      gap      omega  full diag
   1   -117.4146044 -0.117415E+03  0.764E-03    2.34       0.0  T
   2   -117.4146044 -0.227741E-07  0.444E-03    2.34       2.5  T
   3   -117.4146044  0.459507E-07  0.839E-04    2.34      13.1  T
   4   -117.4146044 -0.518163E-07  0.301E-04    2.34      36.5  T
     SCC iter.                  ...        0 min,  0.537 sec
     gradient                   ...        0 min,  0.117 sec
 * total energy  :  -115.5319360 Eh     change       -0.2542409E-05 Eh
   gradient norm :     0.0003535 Eh/α   predicted    -0.1114336E-05 ( -56.17%)
   displ. norm   :     0.0720085 α      lambda       -0.2235053E-05
   maximum displ.:     0.0386170 α      in ANC's #2, #1, #6, ...

........................................................................
.............................. CYCLE   42 ..............................
........................................................................

 iter      E             dE          RMSdq      gap      omega  full diag
   1   -117.4146607 -0.117415E+03  0.788E-03    2.35       0.0  T
   2   -117.4146607 -0.208325E-07  0.459E-03    2.35       2.4  T
   3   -117.4146606  0.105054E-06  0.110E-03    2.35       9.9  T
   4   -117.4146607 -0.113505E-06  0.341E-04    2.35      32.2  T
   5   -117.4146608 -0.480078E-08  0.135E-04    2.35      81.5  T
     SCC iter.                  ...        0 min,  0.828 sec
     gradient                   ...        0 min,  0.117 sec
 * total energy  :  -115.5319386 Eh     change       -0.2601452E-05 Eh
   gradient norm :     0.0004046 Eh/α   predicted    -0.1123503E-05 ( -56.81%)
   displ. norm   :     0.0757740 α      lambda       -0.2212471E-05
   maximum displ.:     0.0401324 α      in ANC's #2, #1, #6, ...
 * RMSD in coord.:     0.1829109 α      energy gain  -0.2891742E-03 Eh

generating ANC from exact Hessian ...
Using Lindh-Hessian (1995)
 Shifting diagonal of input Hessian by    1.0098302313188746E-002
 Lowest  eigenvalues of input Hessian
    0.010000    0.000000    0.000000    0.000000    0.000000    0.000000
    0.000000    0.010206    0.010359    0.010448    0.010531    0.010606
    0.010776    0.010813    0.011040    0.011127    0.011330    0.011466
 Highest eigenvalues
    2.004205    2.015894    2.027584    2.075283    2.115770    2.126569


........................................................................
.............................. CYCLE   43 ..............................
........................................................................

 iter      E             dE          RMSdq      gap      omega  full diag
   1   -117.4146905 -0.117415E+03  0.806E-03    2.35       0.0  T
   2   -117.4146905 -0.250892E-07  0.465E-03    2.35       2.4  T
   3   -117.4146905  0.610954E-07  0.925E-04    2.35      11.9  T
   4   -117.4146905 -0.633924E-07  0.388E-04    2.35      28.3  T
     SCC iter.                  ...        0 min,  0.633 sec
     gradient                   ...        0 min,  0.118 sec
 * total energy  :  -115.5319412 Eh     change       -0.2569312E-05 Eh
   gradient norm :     0.0003430 Eh/α   predicted     0.0000000E+00 (-100.00%)
   displ. norm   :     0.0105047 α      lambda       -0.1049849E-06
   maximum displ.:     0.0034072 α      in ANC's #16, #2, #20, ...

........................................................................
.............................. CYCLE   44 ..............................
........................................................................

 iter      E             dE          RMSdq      gap      omega  full diag
   1   -117.4146826 -0.117415E+03  0.241E-03    2.35       0.0  T
   2   -117.4146826 -0.527562E-08  0.133E-03    2.35       8.2  T
   3   -117.4146826  0.110868E-07  0.453E-04    2.35      24.2  T
   4   -117.4146826 -0.107034E-07  0.199E-04    2.35      55.3  T
     SCC iter.                  ...        0 min,  0.712 sec
     gradient                   ...        0 min,  0.212 sec
 * total energy  :  -115.5319422 Eh     change       -0.9905080E-06 Eh
   gradient norm :     0.0002089 Eh/α   predicted    -0.4252005E-06 ( -57.07%)
   displ. norm   :     0.0406603 α      lambda       -0.2274117E-05
   maximum displ.:     0.0136719 α      in ANC's #16, #2, #13, ...

........................................................................
.............................. CYCLE   45 ..............................
........................................................................

 iter      E             dE          RMSdq      gap      omega  full diag
   1   -117.4145849 -0.117415E+03  0.875E-03    2.35       0.0  T
   2   -117.4145850 -0.658821E-07  0.488E-03    2.35       2.2  T
   3   -117.4145849  0.508455E-07  0.124E-03    2.35       8.8  T
   4   -117.4145850 -0.511438E-07  0.510E-04    2.35      21.5  T
   5   -117.4145850 -0.982561E-08  0.285E-04    2.35      38.5  T
     SCC iter.                  ...        0 min,  0.836 sec
     gradient                   ...        0 min,  0.142 sec
 * total energy  :  -115.5319434 Eh     change       -0.1213203E-05 Eh
   gradient norm :     0.0005096 Eh/α   predicted    -0.1139037E-05 (  -6.11%)
   displ. norm   :     0.0234546 α      lambda       -0.1620188E-05
   maximum displ.:     0.0087289 α      in ANC's #2, #7, #3, ...

........................................................................
.............................. CYCLE   46 ..............................
........................................................................

 iter      E             dE          RMSdq      gap      omega  full diag
   1   -117.4145747 -0.117415E+03  0.561E-03    2.35       0.0  T
   2   -117.4145747 -0.808716E-07  0.286E-03    2.35       3.8  T
   3   -117.4145747  0.513737E-09  0.899E-04    2.35      12.2  T
   4   -117.4145747  0.320938E-09  0.472E-04    2.35      23.3  T
     SCC iter.                  ...        0 min,  0.686 sec
     gradient                   ...        0 min,  0.126 sec
 * total energy  :  -115.5319440 Eh     change       -0.5631937E-06 Eh
   gradient norm :     0.0003912 Eh/α   predicted    -0.8128164E-06 (  44.32%)
   displ. norm   :     0.0082317 α      lambda       -0.7836068E-06
   maximum displ.:     0.0039278 α      in ANC's #20, #18, #16, ...

........................................................................
.............................. CYCLE   47 ..............................
........................................................................

 iter      E             dE          RMSdq      gap      omega  full diag
   1   -117.4146170 -0.117415E+03  0.268E-03    2.35       0.0  T
   2   -117.4146170 -0.130149E-07  0.146E-03    2.35       7.5  T
   3   -117.4146170  0.159256E-07  0.590E-04    2.35      18.6  T
   4   -117.4146170 -0.146991E-07  0.275E-04    2.35      39.8  T
     SCC iter.                  ...        0 min,  0.561 sec
     gradient                   ...        0 min,  0.118 sec
 * total energy  :  -115.5319448 Eh     change       -0.7800466E-06 Eh
   gradient norm :     0.0001580 Eh/α   predicted    -0.3931146E-06 ( -49.60%)
   displ. norm   :     0.0143878 α      lambda       -0.5684365E-06
   maximum displ.:     0.0065058 α      in ANC's #2, #3, #5, ...

........................................................................
.............................. CYCLE   48 ..............................
........................................................................

 iter      E             dE          RMSdq      gap      omega  full diag
   1   -117.4146035 -0.117415E+03  0.286E-03    2.35       0.0  T
   2   -117.4146035 -0.776640E-08  0.151E-03    2.35       7.3  T
   3   -117.4146035  0.211980E-08  0.373E-04    2.35      29.4  T
   4   -117.4146035  0.115020E-08  0.247E-04    2.35      44.4  T
     SCC iter.                  ...        0 min,  0.653 sec
     gradient                   ...        0 min,  0.117 sec
 * total energy  :  -115.5319454 Eh     change       -0.6679832E-06 Eh
   gradient norm :     0.0001183 Eh/α   predicted    -0.2846661E-06 ( -57.38%)
   displ. norm   :     0.0444607 α      lambda       -0.1125630E-05
   maximum displ.:     0.0209472 α      in ANC's #2, #3, #5, ...

........................................................................
.............................. CYCLE   49 ..............................
........................................................................

 iter      E             dE          RMSdq      gap      omega  full diag
   1   -117.4145966 -0.117415E+03  0.623E-03    2.35       0.0  T
   2   -117.4145966 -0.267708E-07  0.343E-03    2.35       3.2  T
   3   -117.4145966  0.143857E-07  0.854E-04    2.35      12.8  T
   4   -117.4145966 -0.162366E-07  0.381E-04    2.35      28.8  T
     SCC iter.                  ...        0 min,  0.602 sec
     gradient                   ...        0 min,  0.129 sec
 * total energy  :  -115.5319466 Eh     change       -0.1213036E-05 Eh
   gradient norm :     0.0003117 Eh/α   predicted    -0.5638862E-06 ( -53.51%)
   displ. norm   :     0.0652304 α      lambda       -0.1321132E-05
   maximum displ.:     0.0313461 α      in ANC's #2, #3, #5, ...

........................................................................
.............................. CYCLE   50 ..............................
........................................................................

 iter      E             dE          RMSdq      gap      omega  full diag
   1   -117.4145725 -0.117415E+03  0.855E-03    2.35       0.0  T
   2   -117.4145725 -0.333267E-07  0.474E-03    2.35       2.3  T
   3   -117.4145725  0.826560E-08  0.880E-04    2.35      12.5  T
   4   -117.4145725 -0.695111E-08  0.473E-04    2.35      23.2  T
     SCC iter.                  ...        0 min,  0.600 sec
     gradient                   ...        0 min,  0.126 sec
 * total energy  :  -115.5319480 Eh     change       -0.1350222E-05 Eh
   gradient norm :     0.0003876 Eh/α   predicted    -0.6647699E-06 ( -50.77%)
   displ. norm   :     0.0694088 α      lambda        0.1579559E-06
   maximum displ.:     0.0333927 α      in ANC's #2, #3, #5, ...

........................................................................
.............................. CYCLE   51 ..............................
........................................................................

 iter      E             dE          RMSdq      gap      omega  full diag
   1   -117.4145063 -0.117415E+03  0.901E-03    2.35       0.0  T
   2   -117.4145063 -0.344316E-07  0.502E-03    2.35       2.2  T
   3   -117.4145063  0.111647E-07  0.927E-04    2.35      11.8  T
   4   -117.4145063 -0.104046E-07  0.494E-04    2.35      22.2  T
     SCC iter.                  ...        0 min,  0.572 sec
     gradient                   ...        0 min,  0.119 sec
 * total energy  :  -115.5319481 Eh     change       -0.9659126E-07 Eh
   gradient norm :     0.0005372 Eh/α   predicted     0.7722860E-07 (-179.95%)
   displ. norm   :     0.0194140 α      lambda       -0.1276851E-05
   maximum displ.:     0.0098159 α      in ANC's #2, #5, #3, ...

........................................................................
.............................. CYCLE   52 ..............................
........................................................................

 iter      E             dE          RMSdq      gap      omega  full diag
   1   -117.4145760 -0.117415E+03  0.477E-03    2.35       0.0  T
   2   -117.4145760 -0.426526E-07  0.228E-03    2.35       4.8  T
   3   -117.4145760  0.959028E-08  0.759E-04    2.35      14.5  T
   4   -117.4145760 -0.101770E-07  0.404E-04    2.35      27.1  T
     SCC iter.                  ...        0 min,  0.652 sec
     gradient                   ...        0 min,  0.117 sec
 * total energy  :  -115.5319495 Eh     change       -0.1360652E-05 Eh
   gradient norm :     0.0002950 Eh/α   predicted    -0.6428282E-06 ( -52.76%)
   displ. norm   :     0.0241953 α      lambda       -0.1014743E-05
   maximum displ.:     0.0127526 α      in ANC's #2, #1, #3, ...

........................................................................
.............................. CYCLE   53 ..............................
........................................................................

 iter      E             dE          RMSdq      gap      omega  full diag
   1   -117.4146565 -0.117415E+03  0.398E-03    2.35       0.0  T
   2   -117.4146565 -0.194148E-07  0.208E-03    2.35       5.3  T
   3   -117.4146565  0.116520E-07  0.620E-04    2.35      17.7  T
   4   -117.4146565 -0.623822E-08  0.383E-04    2.35      28.6  T
     SCC iter.                  ...        0 min,  0.602 sec
     gradient                   ...        0 min,  0.118 sec
 * total energy  :  -115.5319506 Eh     change       -0.1104402E-05 Eh
   gradient norm :     0.0001526 Eh/α   predicted    -0.5111701E-06 ( -53.72%)
   displ. norm   :     0.0387050 α      lambda       -0.9559591E-06
   maximum displ.:     0.0206103 α      in ANC's #2, #1, #3, ...

........................................................................
.............................. CYCLE   54 ..............................
........................................................................

 iter      E             dE          RMSdq      gap      omega  full diag
   1   -117.4146615 -0.117415E+03  0.475E-03    2.35       0.0  T
   2   -117.4146615 -0.125614E-07  0.266E-03    2.35       4.1  T
   3   -117.4146615  0.371385E-08  0.504E-04    2.35      21.8  T
   4   -117.4146615 -0.260785E-08  0.281E-04    2.35      39.0  T
     SCC iter.                  ...        0 min,  0.553 sec
     gradient                   ...        0 min,  0.117 sec
 * total energy  :  -115.5319517 Eh     change       -0.1104606E-05 Eh
   gradient norm :     0.0002576 Eh/α   predicted    -0.4807549E-06 ( -56.48%)
   displ. norm   :     0.0649577 α      lambda       -0.1221841E-05
   maximum displ.:     0.0344856 α      in ANC's #2, #1, #3, ...

........................................................................
.............................. CYCLE   55 ..............................
........................................................................

 iter      E             dE          RMSdq      gap      omega  full diag
   1   -117.4146374 -0.117415E+03  0.755E-03    2.35       0.0  T
   2   -117.4146374 -0.192118E-07  0.425E-03    2.35       2.6  T
   3   -117.4146374  0.136371E-07  0.743E-04    2.35      14.8  T
   4   -117.4146374 -0.125099E-07  0.392E-04    2.35      28.0  T
     SCC iter.                  ...        0 min,  0.632 sec
     gradient                   ...        0 min,  0.117 sec
 * total energy  :  -115.5319531 Eh     change       -0.1397392E-05 Eh
   gradient norm :     0.0003498 Eh/α   predicted    -0.6163496E-06 ( -55.89%)
   displ. norm   :     0.0451906 α      lambda       -0.8034054E-06
   maximum displ.:     0.0247286 α      in ANC's #2, #1, #3, ...

........................................................................
.............................. CYCLE   56 ..............................
........................................................................

 iter      E             dE          RMSdq      gap      omega  full diag
   1   -117.4146156 -0.117415E+03  0.550E-03    2.35       0.0  T
   2   -117.4146156 -0.112706E-07  0.307E-03    2.35       3.6  T
   3   -117.4146156  0.469913E-08  0.542E-04    2.35      20.3  T
   4   -117.4146156 -0.249200E-08  0.314E-04    2.35      35.0  T
     SCC iter.                  ...        0 min,  0.864 sec
     gradient                   ...        0 min,  0.117 sec
 * total energy  :  -115.5319541 Eh     change       -0.1038184E-05 Eh
   gradient norm :     0.0002455 Eh/α   predicted    -0.4067561E-06 ( -60.82%)
   displ. norm   :     0.0495619 α      lambda       -0.9224636E-06
   maximum displ.:     0.0280247 α      in ANC's #2, #1, #3, ...

........................................................................
.............................. CYCLE   57 ..............................
........................................................................

 iter      E             dE          RMSdq      gap      omega  full diag
   1   -117.4145967 -0.117415E+03  0.602E-03    2.35       0.0  T
   2   -117.4145967 -0.134593E-07  0.339E-03    2.35       3.2  T
   3   -117.4145967  0.588877E-08  0.547E-04    2.35      20.1  T
   4   -117.4145967 -0.400415E-08  0.299E-04    2.35      36.7  T
     SCC iter.                  ...        0 min,  0.684 sec
     gradient                   ...        0 min,  0.118 sec
 * total energy  :  -115.5319553 Eh     change       -0.1165014E-05 Eh
   gradient norm :     0.0001061 Eh/α   predicted    -0.4640993E-06 ( -60.16%)
   displ. norm   :     0.0814593 α      lambda       -0.1228794E-05
   maximum displ.:     0.0466603 α      in ANC's #2, #1, #3, ...

........................................................................
.............................. CYCLE   58 ..............................
........................................................................

 iter      E             dE          RMSdq      gap      omega  full diag
   1   -117.4145476 -0.117415E+03  0.953E-03    2.35       0.0  T
   2   -117.4145476 -0.294398E-07  0.536E-03    2.35       2.0  T
   3   -117.4145476  0.164139E-07  0.862E-04    2.35      12.7  T
   4   -117.4145476 -0.104956E-07  0.477E-04    2.35      23.0  T
     SCC iter.                  ...        0 min,  0.577 sec
     gradient                   ...        0 min,  0.125 sec
 * total energy  :  -115.5319568 Eh     change       -0.1509085E-05 Eh
   gradient norm :     0.0002624 Eh/α   predicted    -0.6202754E-06 ( -58.90%)
   displ. norm   :     0.1122341 α      lambda       -0.1435749E-05
   maximum displ.:     0.0649103 α      in ANC's #2, #1, #3, ...

........................................................................
.............................. CYCLE   59 ..............................
........................................................................

 iter      E             dE          RMSdq      gap      omega  full diag
   1   -117.4145278 -0.117415E+03  0.128E-02    2.35       0.0  T
   2   -117.4145279 -0.470128E-07  0.727E-03    2.35       1.5  T
   3   -117.4145278  0.375116E-07  0.116E-03    2.35       9.5  T
   4   -117.4145279 -0.274694E-07  0.618E-04    2.35      17.8  T
   5   -117.4145279 -0.249525E-07  0.142E-04    2.35      77.3  T
     SCC iter.                  ...        0 min,  0.884 sec
     gradient                   ...        0 min,  0.122 sec
 * total energy  :  -115.5319586 Eh     change       -0.1831798E-05 Eh
   gradient norm :     0.0004190 Eh/α   predicted    -0.7230139E-06 ( -60.53%)
   displ. norm   :     0.1129460 α      lambda       -0.1475213E-05
   maximum displ.:     0.0657706 α      in ANC's #2, #1, #3, ...

........................................................................
.............................. CYCLE   60 ..............................
........................................................................

 iter      E             dE          RMSdq      gap      omega  full diag
   1   -117.4145320 -0.117415E+03  0.129E-02    2.35       0.0  T
   2   -117.4145321 -0.493654E-07  0.728E-03    2.35       1.5  T
   3   -117.4145320  0.333692E-07  0.114E-03    2.35       9.6  T
   4   -117.4145321 -0.256960E-07  0.590E-04    2.35      18.6  T
   5   -117.4145321 -0.232298E-07  0.129E-04    2.35      85.3  T
     SCC iter.                  ...        0 min,  0.849 sec
     gradient                   ...        0 min,  0.117 sec
 * total energy  :  -115.5319606 Eh     change       -0.2012117E-05 Eh
   gradient norm :     0.0004064 Eh/α   predicted    -0.7447230E-06 ( -62.99%)
   displ. norm   :     0.1201076 α      lambda       -0.1810036E-05
   maximum displ.:     0.0708735 α      in ANC's #2, #1, #3, ...

........................................................................
.............................. CYCLE   61 ..............................
........................................................................

 iter      E             dE          RMSdq      gap      omega  full diag
   1   -117.4145968 -0.117415E+03  0.139E-02    2.35       0.0  T
   2   -117.4145969 -0.598440E-07  0.787E-03    2.35       1.4  T
   3   -117.4145968  0.400095E-07  0.124E-03    2.35       8.8  T
   4   -117.4145968 -0.284876E-07  0.638E-04    2.35      17.2  T
   5   -117.4145969 -0.280272E-07  0.181E-04    2.35      60.7  T
     SCC iter.                  ...        0 min,  0.712 sec
     gradient                   ...        0 min,  0.118 sec
 * total energy  :  -115.5319631 Eh     change       -0.2448064E-05 Eh
   gradient norm :     0.0002726 Eh/α   predicted    -0.9142687E-06 ( -62.65%)
   displ. norm   :     0.1162869 α      lambda       -0.1825751E-05
   maximum displ.:     0.0694763 α      in ANC's #2, #1, #5, ...

[...]
     7   6 C        3.755    -0.121    22.882     6.821
     8   6 C        3.802    -0.070    21.843     6.654
     9   6 C        3.752    -0.110    22.659     6.788
    10  15 P        4.543     0.284   148.236    21.871
    11  16 S        1.899    -0.057   143.420    20.156
    12  16 S        2.071    -0.054   143.311    20.149
    13   6 C        2.973     0.038    27.145     8.546
    14   6 C        2.947    -0.033    28.813     8.804
    15   6 C        2.922    -0.024    28.596     8.769
    16   6 C        2.919    -0.024    28.596     8.769
    17   6 C        2.922    -0.024    28.598     8.770
    18   6 C        2.971    -0.033    28.827     8.807
    19   7 N        2.683    -0.120    23.612     7.217
    20   6 C        3.804    -0.040    21.282     6.568
    21   6 C        3.189     0.053    26.356     8.375
    22   6 C        2.915    -0.045    29.116     8.848
    23   6 C        2.919    -0.031    28.764     8.795
    24   6 C        2.986     0.014    27.699     8.633
    25   6 C        2.919    -0.030    28.746     8.792
    26   6 C        2.915    -0.023    28.575     8.766
    27   6 C        2.916    -0.024    28.600     8.770
    28   6 C        2.917    -0.033    28.818     8.803
    29   6 C        2.988     0.012    27.730     8.638
    30   6 C        2.979    -0.007    28.195     8.710
    31   6 C        2.978    -0.007    28.198     8.710
    32   6 C        3.076     0.051    26.780     8.484
    33   6 C        2.916    -0.051    29.258     8.870
    34   6 C        2.919    -0.034    28.836     8.806
    35   6 C        2.987     0.013    27.712     8.635
    36   6 C        2.920    -0.031    28.762     8.795
    37   6 C        2.915    -0.022    28.551     8.762
    38   6 C        2.917    -0.022    28.563     8.764
    39   6 C        2.917    -0.032    28.805     8.801
    40   6 C        2.988     0.012    27.736     8.639
    41   7 N        2.683    -0.126    23.745     7.237
    42   6 C        3.831    -0.030    21.078     6.532
    43   1 H        0.925     0.047     2.361     2.403
    44   1 H        0.925     0.039     2.465     2.455
    45   1 H        0.925     0.057     2.233     2.337
    46   1 H        0.924     0.040     2.449     2.447
    47   1 H        0.924     0.053     2.284     2.363
    48   1 H        0.924     0.054     2.270     2.356
    49   1 H        0.925     0.062     2.179     2.308
    50   1 H        0.925     0.056     2.242     2.342
    51   1 H        0.925     0.041     2.437     2.441
    52   1 H        0.924     0.067     2.114     2.273
    53   1 H        0.925     0.050     2.323     2.384
    54   1 H        0.925     0.070     2.082     2.256
    55   1 H        0.925     0.052     2.296     2.370
    56   1 H        0.924     0.043     2.415     2.430
    57   1 H        0.924     0.054     2.271     2.357
    58   1 H        0.925     0.048     2.343     2.394
    59   1 H        0.925     0.054     2.267     2.354
    60   1 H        0.925     0.043     2.405     2.425
    61   1 H        0.926     0.051     2.309     2.376
    62   1 H        0.926     0.057     2.239     2.340
    63   1 H        0.926     0.057     2.231     2.336
    64   1 H        0.926     0.054     2.274     2.358
    65   1 H        0.926     0.046     2.376     2.410
    66   1 H        0.925     0.072     2.059     2.244
    67   1 H        0.925     0.069     2.096     2.264
    68   1 H        0.924     0.058     2.224     2.332
    69   1 H        0.926     0.043     2.404     2.425
    70   1 H        0.926     0.056     2.252     2.347
    71   1 H        0.926     0.049     2.333     2.389
    72   1 H        0.926     0.050     2.316     2.380
    73   1 H        0.926     0.046     2.369     2.407
    74   1 H        0.926     0.037     2.490     2.468
    75   1 H        0.926     0.041     2.442     2.444
    76   1 H        0.926     0.053     2.287     2.365
    77   1 H        0.926     0.048     2.344     2.394
    78   1 H        0.926     0.051     2.305     2.374
    79   1 H        0.926     0.048     2.341     2.393
    80   1 H        0.926     0.039     2.458     2.452
    81   1 H        0.924     0.061     2.188     2.313
    82   1 H        0.924     0.057     2.238     2.340
    83   1 H        0.924     0.060     2.197     2.318

 Mol. C6AA /au·bohr⁶  :      88378.252417
 Mol. C8AA /au·bohr⁸  :    2354571.409061
 Mol. α(0) /au        :        474.203813


Wiberg/Mayer (AO) data.
largest (>0.10) Wiberg bond orders for each atom

 ---------------------------------------------------------------------------
     #   Z sym  total        # sym  WBO       # sym  WBO       # sym  WBO
 ---------------------------------------------------------------------------
     1   6 C    3.992 --     2 C    1.017    44 H    0.987    43 H    0.986
                            45 H    0.984
     2   6 C    3.989 --     1 C    1.017     3 C    0.986    47 H    0.973
                            46 H    0.967
     3   6 C    3.955 --     4 C    1.007     2 C    0.986    48 H    0.937
                             5 N    0.934
     4   6 C    3.992 --     3 C    1.007    50 H    0.981    49 H    0.978
                            51 H    0.978
     5   7 N    3.402 --    10 P    1.256     6 C    0.941     3 C    0.934
     6   6 C    3.955 --     7 C    1.009     8 C    0.988    52 H    0.954
                             5 N    0.941
     7   6 C    3.988 --     6 C    1.009    53 H    0.982    54 H    0.976
                            55 H    0.965
     8   6 C    3.993 --     9 C    1.017     6 C    0.988    56 H    0.971
                            57 H    0.960
     9   6 C    3.991 --     8 C    1.017    60 H    0.985    59 H    0.984
                            58 H    0.984
    10  15 P    5.137 --     5 N    1.256    41 N    1.230    19 N    1.225
                            11 S    0.977
    11  16 S    2.466 --    12 S    1.166    10 P    0.977
    12  16 S    2.378 --    11 S    1.166    13 C    0.983
    13   6 C    3.954 --    14 C    1.405    18 C    1.399    12 S    0.983
                            16 C    0.102
    14   6 C    3.989 --    15 C    1.443    13 C    1.405    61 H    0.966
                            17 C    0.109
    15   6 C    3.990 --    14 C    1.443    16 C    1.434    62 H    0.967
                            18 C    0.109
    16   6 C    3.983 --    17 C    1.437    15 C    1.434    63 H    0.969
                            13 C    0.102
    17   6 C    3.990 --    18 C    1.440    16 C    1.437    64 H    0.968
                            14 C    0.109
    18   6 C    3.989 --    17 C    1.440    13 C    1.399    65 H    0.965
                            15 C    0.109
    19   7 N    3.428 --    10 P    1.225    20 C    0.973    21 C    0.966
    20   6 C    3.957 --    66 H    0.977    68 H    0.975    19 N    0.973
                            67 H    0.962
    21   6 C    3.950 --    30 C    1.454    22 C    1.288    19 N    0.966
    22   6 C    3.988 --    23 C    1.555    21 C    1.288    69 H    0.963
    23   6 C    3.984 --    22 C    1.555    24 C    1.273    70 H    0.966
                            30 C    0.105
    24   6 C    3.989 --    25 C    1.281    23 C    1.273    29 C    1.254
    25   6 C    3.988 --    26 C    1.555    24 C    1.281    71 H    0.967
                            28 C    0.117
    26   6 C    3.987 --    25 C    1.555    27 C    1.323    72 H    0.969
    27   6 C    3.990 --    28 C    1.552    26 C    1.323    73 H    0.970
    28   6 C    3.989 --    27 C    1.552    29 C    1.283    74 H    0.966
                            25 C    0.117
    29   6 C    3.987 --    28 C    1.283    24 C    1.254    30 C    1.235
    30   6 C    3.986 --    21 C    1.454    29 C    1.235    31 C    1.033
                            23 C    0.105
    31   6 C    3.985 --    32 C    1.463    40 C    1.230    30 C    1.033
                            34 C    0.105
    32   6 C    3.948 --    31 C    1.463    33 C    1.284    41 N    0.967
    33   6 C    3.986 --    34 C    1.558    32 C    1.284    75 H    0.962
    34   6 C    3.984 --    33 C    1.558    35 C    1.273    76 H    0.966
                            31 C    0.105
    35   6 C    3.988 --    36 C    1.281    34 C    1.273    40 C    1.255
    36   6 C    3.989 --    37 C    1.554    35 C    1.281    77 H    0.967
                            39 C    0.117
    37   6 C    3.987 --    36 C    1.554    38 C    1.324    78 H    0.969
    38   6 C    3.990 --    39 C    1.551    37 C    1.324    79 H    0.970
    39   6 C    3.989 --    38 C    1.551    40 C    1.286    80 H    0.965
                            36 C    0.117
    40   6 C    3.987 --    39 C    1.286    35 C    1.255    31 C    1.230
    41   7 N    3.425 --    10 P    1.230    42 C    0.974    32 C    0.967
    42   6 C    3.961 --    81 H    0.976    41 N    0.974    82 H    0.971
                            83 H    0.964
    43   1 H    0.998 --     1 C    0.986
    44   1 H    0.998 --     1 C    0.987
    45   1 H    0.996 --     1 C    0.984
    46   1 H    0.998 --     2 C    0.967
    47   1 H    0.997 --     2 C    0.973
    48   1 H    0.996 --     3 C    0.937
    49   1 H    0.995 --     4 C    0.978
    50   1 H    0.997 --     4 C    0.981
    51   1 H    0.998 --     4 C    0.978
    52   1 H    0.994 --     6 C    0.954
    53   1 H    0.997 --     7 C    0.982
    54   1 H    0.994 --     7 C    0.976
    55   1 H    0.997 --     7 C    0.965
    56   1 H    0.998 --     8 C    0.971
    57   1 H    0.997 --     8 C    0.960
    58   1 H    0.997 --     9 C    0.984
    59   1 H    0.997 --     9 C    0.984
    60   1 H    0.997 --     9 C    0.985
    61   1 H    0.997 --    14 C    0.966
    62   1 H    0.997 --    15 C    0.967
    63   1 H    0.996 --    16 C    0.969
    64   1 H    0.996 --    17 C    0.968
    65   1 H    0.998 --    18 C    0.965
    66   1 H    0.994 --    20 C    0.977
    67   1 H    0.994 --    20 C    0.962
    68   1 H    0.996 --    20 C    0.975
    69   1 H    0.997 --    22 C    0.963
    70   1 H    0.996 --    23 C    0.966
    71   1 H    0.997 --    25 C    0.967
    72   1 H    0.997 --    26 C    0.969
    73   1 H    0.997 --    27 C    0.970
    74   1 H    0.998 --    28 C    0.966
    75   1 H    0.997 --    33 C    0.962
    76   1 H    0.996 --    34 C    0.966
    77   1 H    0.997 --    36 C    0.967
    78   1 H    0.997 --    37 C    0.969
    79   1 H    0.997 --    38 C    0.970
    80   1 H    0.998 --    39 C    0.965
    81   1 H    0.996 --    42 C    0.976
    82   1 H    0.996 --    42 C    0.971
    83   1 H    0.995 --    42 C    0.964
 ---------------------------------------------------------------------------

Topologies differ in total number of bonds
Writing topology from bond orders to xtbtopo.mol

molecular dipole:
                 x           y           z       tot (Debye)
 q only:       -0.797      -0.386      -0.195
   full:       -0.727      -0.250      -0.247       2.052
molecular quadrupole (traceless):
                xx          xy          yy          xz          yz          zz
 q only:       13.486      10.130       4.959      -2.159       1.809     -18.445
  q+dip:       13.164      11.529       0.708       0.511      -0.229     -13.872
   full:       11.218      10.503       5.725       0.353       1.308     -16.943

           -------------------------------------------------
          |                Geometry Summary                 |
           -------------------------------------------------

      molecular mass/u    :      610.8355096
   center of mass at/Å    :        0.3216671       0.3244269       0.2601182
  moments of inertia/u·Å² :        0.5227765E+04   0.6313833E+04   0.8555792E+04
rotational constants/cm⁻¹ :        0.3224635E-02   0.2669952E-02   0.1970318E-02

 * 86 selected distances

     #   Z          #   Z                                           value/Å
     1   6 C        2   6 C                                       1.5248386
     2   6 C        3   6 C                                       1.5371981
     3   6 C        4   6 C                                       1.5253572
     3   6 C        5   7 N                                       1.4749533
     5   7 N        6   6 C                                       1.4691186
     6   6 C        7   6 C                                       1.5230446
     6   6 C        8   6 C                                       1.5347166
     8   6 C        9   6 C                                       1.5244910
     5   7 N       10  15 P                                       1.6483983
    10  15 P       11  16 S                                       2.1390247 (max)
    11  16 S       12  16 S                                       2.0448655
    13   6 C       14   6 C                                       1.3854185
    14   6 C       15   6 C                                       1.3835553
    15   6 C       16   6 C                                       1.3860542
    16   6 C       17   6 C                                       1.3857313
    13   6 C       18   6 C                                       1.3868821
    17   6 C       18   6 C                                       1.3841762
    10  15 P       19   7 N                                       1.6601863
    19   7 N       20   6 C                                       1.4542289
    19   7 N       21   6 C                                       1.4336530
    21   6 C       22   6 C                                       1.4062872
    22   6 C       23   6 C                                       1.3646690
    23   6 C       24   6 C                                       1.4106221
    24   6 C       25   6 C                                       1.4103043
    25   6 C       26   6 C                                       1.3668682
    26   6 C       27   6 C                                       1.4033532
    27   6 C       28   6 C                                       1.3676337
    24   6 C       29   6 C                                       1.4199135
    28   6 C       29   6 C                                       1.4116633
    21   6 C       30   6 C                                       1.3772258
    29   6 C       30   6 C                                       1.4220628
    31   6 C       32   6 C                                       1.3764753
    32   6 C       33   6 C                                       1.4077986
    33   6 C       34   6 C                                       1.3638611
    34   6 C       35   6 C                                       1.4099917
    35   6 C       36   6 C                                       1.4100622
    36   6 C       37   6 C                                       1.3665382
    37   6 C       38   6 C                                       1.4026176
    38   6 C       39   6 C                                       1.3676460
    31   6 C       40   6 C                                       1.4252304
    35   6 C       40   6 C                                       1.4196685
    39   6 C       40   6 C                                       1.4113898
    10  15 P       41   7 N                                       1.6537972
    32   6 C       41   7 N                                       1.4313002
    41   7 N       42   6 C                                       1.4557978
     1   6 C       43   1 H                                       1.0866232
     1   6 C       44   1 H                                       1.0881287
     1   6 C       45   1 H                                       1.0863915
     2   6 C       46   1 H                                       1.0910809
     2   6 C       47   1 H                                       1.0911049
     3   6 C       48   1 H                                       1.0978809
     4   6 C       49   1 H                                       1.0866035
     4   6 C       50   1 H                                       1.0868564
     4   6 C       51   1 H                                       1.0869877
     6   6 C       52   1 H                                       1.0928099
     7   6 C       53   1 H                                       1.0870497
     7   6 C       54   1 H                                       1.0858983
     7   6 C       55   1 H                                       1.0883746
     8   6 C       56   1 H                                       1.0918752
     8   6 C       57   1 H                                       1.0915360
     9   6 C       58   1 H                                       1.0862258
     9   6 C       59   1 H                                       1.0862928
     9   6 C       60   1 H                                       1.0876846
    14   6 C       61   1 H                                       1.0801695
    15   6 C       62   1 H                                       1.0788748
    16   6 C       63   1 H                                       1.0787593
    17   6 C       64   1 H                                       1.0789662
    18   6 C       65   1 H                                       1.0796989
    20   6 C       66   1 H                                       1.0900664
    20   6 C       67   1 H                                       1.0860818
    20   6 C       68   1 H                                       1.0915622
    22   6 C       69   1 H                                       1.0787303
    23   6 C       70   1 H                                       1.0789073
    25   6 C       71   1 H                                       1.0795895
    26   6 C       72   1 H                                       1.0789948
    27   6 C       73   1 H                                       1.0793693
    28   6 C       74   1 H                                       1.0797169
    33   6 C       75   1 H                                       1.0785345 (min)
    34   6 C       76   1 H                                       1.0793683
    36   6 C       77   1 H                                       1.0797921
    37   6 C       78   1 H                                       1.0789723
    38   6 C       79   1 H                                       1.0792298
    39   6 C       80   1 H                                       1.0789283
    42   6 C       81   1 H                                       1.0917596
    42   6 C       82   1 H                                       1.0905096
    42   6 C       83   1 H                                       1.0902632

 * 6 distinct bonds (by element types)

   Z      Z             #   av. dist./Å        max./Å        min./Å
   1 H    6 C          41     1.0850305     1.0978809     1.0785345
   6 C    6 C          34     1.4177455     1.5371981     1.3638611
   6 C    7 N           6     1.4531753     1.4749533     1.4313002
   7 N   15 P           3     1.6541273     1.6601863     1.6483983
  15 P   16 S           1     2.1390247     2.1390247     2.1390247
  16 S   16 S           1     2.0448655     2.0448655     2.0448655


optimized geometry written to: xtbopt.xyz


           -------------------------------------------------
          | TOTAL ENERGY             -115.532669175918 Eh   |
          | GRADIENT NORM               0.000028942377 Eh/α |
          | HOMO-LUMO GAP               2.492484544143 eV   |
           -------------------------------------------------

------------------------------------------------------------------------
 * finished run on 2024/12/16 at 18:07:16.353     
------------------------------------------------------------------------
 total:
 * wall-time:     0 d,  0 h,  2 min, 46.317 sec
 *  cpu-time:     0 d,  0 h, 21 min, 46.095 sec
 * ratio c/w:     7.853 speedup
 SCF:
 * wall-time:     0 d,  0 h,  0 min,  2.945 sec
 *  cpu-time:     0 d,  0 h,  0 min, 23.367 sec
 * ratio c/w:     7.934 speedup
 ANC optimizer:
 * wall-time:     0 d,  0 h,  2 min, 43.184 sec
 *  cpu-time:     0 d,  0 h, 21 min, 21.299 sec
 * ratio c/w:     7.852 speedup

