83
 energy: -115.532669175918 gnorm: 0.000028942377 xtb: 6.7.1 (edcfbbe)
C           -1.22122209070312       -4.32921543257589       -2.17664960836830
C           -2.15618310203984       -3.69221306412355       -1.15429535971868
C           -2.03943456841335       -2.15950043578700       -1.16610390930998
C           -3.00130981815815       -1.55521637117402       -2.18411709932753
N           -2.23052322149093       -1.57039101962655        0.17252305521917
C           -3.49623321479463       -1.82759974926100        0.87261661849691
C           -3.23379817715841       -2.35787811489276        2.27603992528387
C           -4.41936093751518       -0.60164487005892        0.88759754267925
C           -5.89043976011623       -0.99258944123798        0.97222589212099
P           -1.04671086070214       -0.52312063815748        0.64052899711933
S           -1.78493669251107        0.77082453173544        2.17550594833285
S           -0.19982329736648        1.99609176235934        2.58490772944489
C           -0.52194895091775        3.45693232360726        1.61157208047146
C           -1.78387235849390        4.02587248837074        1.55464676048154
C           -1.96753129522150        5.18008464507652        0.81418155555767
C           -0.89665058112250        5.76544896357222        0.15713592215317
C            0.36377745751216        5.19468504178870        0.23329806011315
C            0.55762758962083        4.03063225762421        0.95672514415103
N            0.30576935705206       -1.37569555382584        1.08788954157512
C            0.24070458993449       -2.72088010355249        1.63654818036613
C            1.38073983939081       -0.54484774846884        1.54559141345128
C            1.69456945485267       -0.46437415562426        2.91404974053197
C            2.67312336701389        0.38580270034864        3.34060893931379
C            3.33904408151625        1.23365605218168        2.43091188772914
C            4.28232006720984        2.18795806792781        2.86507306188681
C            4.89222850679552        3.02382538011288        1.97195163377701
C            4.58132844282737        2.94377005708174        0.60581396805818
C            3.68140422284832        2.02028364026883        0.15003910320177
C            3.04560790165622        1.13311041205548        1.04529295863451
C            2.08856050128999        0.17583916625678        0.60945536719491
C            1.86375715916279       -0.08031691502432       -0.82339929892656
C            0.61303157546681        0.07604601034366       -1.37649979823654
C            0.40340984904791       -0.13015357903740       -2.75324848516790
C            1.43820969769850       -0.50525391055284       -3.55860911250046
C            2.72375077888552       -0.73254672644019       -3.02588185639587
C            3.79169164576285       -1.16264508624260       -3.84000264454392
C            5.02237999080526       -1.41365966381047       -3.30164931179935
C            5.22906565648839       -1.25976668237886       -1.92290573111529
C            4.21581848433055       -0.83502207025872       -1.10842594236926
C            2.94121030940529       -0.53761273334769       -1.63657613185634
N           -0.48477760596075        0.47733387628440       -0.55042288458874
C           -1.27800890642998        1.61131264508584       -1.00233333759992
H           -1.44956947949928       -3.98196268412109       -3.18065295445470
H           -0.18368643719127       -4.08617784241074       -1.95647597647460
H           -1.33143664757525       -5.40986723716017       -2.15960015582799
H           -1.91293951285378       -4.07908731151695       -0.16352890996933
H           -3.18233333616550       -3.98830279337256       -1.37758043513824
H           -1.00936965832327       -1.90962205113100       -1.45223188715190
H           -2.77437383224152       -1.94291587583916       -3.17350884851608
H           -4.03017812337436       -1.81156261910477       -1.94542633325580
H           -2.91724141859323       -0.47173753020344       -2.20753059177712
H           -3.98922322924622       -2.61364129904818        0.29526688735118
H           -2.73393391110863       -3.32254297072527        2.24090806330378
H           -4.17425801846821       -2.48325756222201        2.80423515734567
H           -2.61839353886865       -1.65771093879312        2.83782476743175
H           -4.25767982508062       -0.02376405201709       -0.02459987758675
H           -4.16719907747224        0.03363225187150        1.73864860727001
H           -6.09366600437804       -1.55896159336718        1.87655328976189
H           -6.51209376822405       -0.10185670031518        0.98539128152245
H           -6.18054533825402       -1.59732414004978        0.11595940583734
H           -2.60951187846528        3.56979587856580        2.08103018368786
H           -2.94734647718388        5.62874120955882        0.76279937708370
H           -1.04426363646122        6.67094299829707       -0.41032532824452
H            1.19989811746233        5.65172481570070       -0.27284896485819
H            1.53306479074704        3.57263319576314        1.02387144612005
H            1.20805357127442       -3.19515595513842        1.47058757419703
H           -0.52239546190185       -3.28051752872839        1.10357746261262
H            0.01609718298165       -2.74422156604656        2.70449689072082
H            1.15005017533946       -1.06617901181535        3.62467517377488
H            2.92434500371532        0.44422293370917        4.38823266637765
H            4.50440636260773        2.25083771402751        3.91969957254326
H            5.61017575897596        3.75454370853900        2.31082025545388
H            5.05711459554961        3.62117539280176       -0.08685296545954
H            3.43889919567610        1.96910882962191       -0.90084658960959
H           -0.58041141246035        0.00965461472606       -3.17251665182172
H            1.27821972974567       -0.65141511273577       -4.61600017248944
H            3.61368874509050       -1.29528371224163       -4.89673002164001
H            5.83688242465539       -1.74174019424889       -3.92864999064662
H            6.19814497030849       -1.48366269656892       -1.50398729583189
H            4.38682023579916       -0.73273004170240       -0.04805765610334
H           -0.65016248039698        2.50381802422407       -1.03670969374863
H           -1.70016194575356        1.45070645266292       -1.99490750207637
H           -2.09985249783747        1.78229504393939       -0.30662377536837
