94
 energy: -148.440170791651 gnorm: 0.142521901346 xtb: 6.7.1 (edcfbbe)
C           -3.80166000000000       -1.19209700000000        2.12613600000000
C           -3.56580900000000       -0.25793700000000        0.93382000000000
C           -3.96510600000000        1.17610100000000        1.31938500000000
N           -2.21834300000000       -0.35800500000000        0.33988700000000
C           -2.15734900000000       -1.16032400000000       -0.92404700000000
C           -2.68509600000000       -0.50128200000000       -2.21726400000000
C           -2.31670100000000       -1.08140400000000       -3.45222000000000
C           -2.74896100000000       -0.55424800000000       -4.66985600000000
C           -3.56571500000000        0.56953500000000       -4.68427400000000
C           -3.94206700000000        1.16270800000000       -3.48297300000000
C           -3.50515900000000        0.63218200000000       -2.26424500000000
C           -2.61602800000000       -2.62792800000000       -0.80833800000000
C           -3.96470200000000       -3.00860400000000       -0.91804800000000
C           -4.34262000000000       -4.35103900000000       -0.83145500000000
C           -3.37744200000000       -5.33994700000000       -0.65854800000000
C           -2.03174600000000       -4.98876100000000       -0.58079800000000
C           -1.65462600000000       -3.64672600000000       -0.66295100000000
P           -0.81036300000000        0.11346900000000        1.07747000000000
S           -1.06358500000000        1.10324200000000        2.92696700000000
S            0.81066400000000        1.68176200000000        3.51431400000000
C            1.04395500000000        3.27956800000000        2.74823800000000
C            2.01173000000000        3.34176800000000        1.73123600000000
C            2.28052600000000        4.53469000000000        1.05969300000000
C            1.58771400000000        5.68875500000000        1.39652100000000
C            0.63984400000000        5.64864800000000        2.41893400000000
C            0.36649700000000        4.45437800000000        3.12250400000000
C           -0.66124700000000        4.49268600000000        4.22609700000000
F           -0.31972200000000        3.79105300000000        5.34117100000000
F           -0.89524400000000        5.76496000000000        4.67232700000000
F           -1.88138900000000        4.03487300000000        3.82909100000000
N            0.01082200000000        1.06564200000000        0.00078400000000
C           -0.64013800000000        2.34959400000000       -0.26000600000000
C            0.75860600000000        0.53836000000000       -1.09335300000000
C            0.43133000000000        0.88618700000000       -2.42023200000000
C            1.08864500000000        0.33865600000000       -3.51711500000000
C            2.08303300000000       -0.61271600000000       -3.33381800000000
C            2.68548700000000       -1.20446500000000       -4.45796300000000
C            3.65690900000000       -2.19066600000000       -4.31566400000000
C            4.02859500000000       -2.59988300000000       -3.04575000000000
C            3.43929300000000       -2.00861900000000       -1.92387100000000
C            2.46651100000000       -0.97814300000000       -2.02071100000000
C            1.85560600000000       -0.33865200000000       -0.87264700000000
C            2.38365400000000       -0.51910200000000        0.44522000000000
C            1.56626000000000       -1.04330000000000        1.48210700000000
C            2.16937200000000       -1.40113400000000        2.70605900000000
C            3.52064200000000       -1.18926800000000        2.95613900000000
C            4.32437800000000       -0.58230500000000        2.00119100000000
C            5.67289200000000       -0.32332500000000        2.30438100000000
C            6.50213200000000        0.32368500000000        1.39428800000000
C            5.98484700000000        0.72706200000000        0.17532200000000
C            4.64741800000000        0.46208200000000       -0.13600300000000
C            3.77182600000000       -0.22476200000000        0.74774200000000
N            0.16181700000000       -1.21791100000000        1.26875400000000
C           -0.44032800000000       -2.24473800000000        2.12248300000000
H           -3.12436900000000       -0.98590700000000        2.95919900000000
H           -4.82483300000000       -1.07191200000000        2.50212000000000
H           -3.68627800000000       -2.24334400000000        1.85137800000000
H           -4.30826600000000       -0.53875300000000        0.18031300000000
H           -5.05063700000000        1.29543500000000        1.21711000000000
H           -3.50185300000000        1.92797600000000        0.67464800000000
H           -3.72962000000000        1.42095200000000        2.35662400000000
H           -1.09057300000000       -1.25118400000000       -1.14692000000000
H           -1.67508800000000       -1.96297500000000       -3.46625800000000
H           -2.44703900000000       -1.02920300000000       -5.59990600000000
H           -3.91201500000000        0.97964700000000       -5.62837400000000
H           -4.58203200000000        2.04157300000000       -3.49097900000000
H           -3.82113500000000        1.13461700000000       -1.36127300000000
H           -4.73823300000000       -2.26525100000000       -1.09195800000000
H           -5.39260400000000       -4.62140200000000       -0.91321500000000
H           -3.67002000000000       -6.38501600000000       -0.60164100000000
H           -1.27256500000000       -5.75719200000000       -0.46367100000000
H           -0.59474500000000       -3.39373800000000       -0.61768700000000
H            2.56082700000000        2.44764600000000        1.43908100000000
H            3.02553900000000        4.55047200000000        0.26801700000000
H            1.79051700000000        6.62090800000000        0.87321300000000
H            0.11441900000000        6.56770300000000        2.67947200000000
H           -1.52948400000000        2.23568900000000       -0.88495100000000
H           -0.97000300000000        2.83221800000000        0.66241700000000
H            0.04666100000000        3.05482700000000       -0.74154700000000
H           -0.38831000000000        1.56376300000000       -2.63902700000000
H            0.77325400000000        0.63642400000000       -4.51493700000000
H            2.39294600000000       -0.90386600000000       -5.46113200000000
H            4.11021700000000       -2.64381500000000       -5.19294600000000
H            4.77194000000000       -3.38173600000000       -2.91656900000000
H            3.74970500000000       -2.37890300000000       -0.94767700000000
H            1.58890500000000       -1.81748300000000        3.52337700000000
H            3.92153300000000       -1.47024200000000        3.92729200000000
H            6.08764600000000       -0.61658700000000        3.26631100000000
H            7.54085800000000        0.52236700000000        1.64376800000000
H            6.61595900000000        1.24733000000000       -0.54065000000000
H            4.28378900000000        0.82101600000000       -1.09725600000000
H            0.14089400000000       -3.17376700000000        2.09846000000000
H           -1.43665100000000       -2.51229800000000        1.77602100000000
H           -0.54911400000000       -1.91034400000000        3.15908400000000
94
 energy: -148.462989930849 gnorm: 0.061811005062 xtb: 6.7.1 (edcfbbe)
C           -3.79764822117051       -1.19364784694392        2.12576789072941
C           -3.58014346140187       -0.25926791018031        0.93590054021809
C           -3.95773177626097        1.17825264263687        1.32586469074815
N           -2.24185700776688       -0.37676378261399        0.32464706349975
C           -2.13406855211869       -1.16914408633742       -0.93849522721661
C           -2.69452597960330       -0.50790896296470       -2.20942685647267
C           -2.31867229064705       -1.08086769371892       -3.43187151585522
C           -2.74766125704686       -0.55684602432826       -4.64255716481616
C           -3.56214929613397        0.56376259809115       -4.66599563398245
C           -3.93348778886579        1.15321279710637       -3.47019321043895
C           -3.50417946543704        0.62348516562088       -2.25662566922863
C           -2.61619365713845       -2.62078731156179       -0.80915024557950
C           -3.95587850919728       -2.99875173399810       -0.91713394271981
C           -4.33122581273971       -4.33437666171695       -0.83365185252945
C           -3.37468407705337       -5.32171922514948       -0.65940234594499
C           -2.03723138659427       -4.96788801036226       -0.58003465302974
C           -1.66385939628177       -3.63305313119684       -0.65668978140456
P           -0.80648418416563        0.08299269818318        1.02909669549003
S           -1.10730418341800        1.13402283363289        2.87791543086194
S            0.78728039688463        1.67471055682515        3.47398970134557
C            1.04156707856352        3.28577621170100        2.73271591319299
C            2.00244376769499        3.34044214757690        1.72512537196856
C            2.27468306822553        4.52912418336726        1.06609752399480
C            1.58244723877089        5.67968194750080        1.40686905712213
C            0.64063631579086        5.64201858316038        2.42449418554672
C            0.37124668538263        4.45576616004233        3.11273330258453
C           -0.65436165575436        4.49416073241768        4.21751037537011
F           -0.31045795217927        3.78315443081477        5.31092283585553
F           -0.88490430055227        5.75306526084605        4.65756552742363
F           -1.86048872114014        4.02521952669564        3.81575868611156
N            0.02920168196470        1.06865533828332       -0.01717401998539
C           -0.63683740040982        2.34914899781430       -0.26091909607138
C            0.77171530006508        0.52671988477386       -1.11129518315307
C            0.41614600630636        0.87183381857677       -2.42593033080724
C            1.07243723976699        0.34344854845645       -3.50975783099451
C            2.08207025525798       -0.61069153151429       -3.33652276125233
C            2.68936986168780       -1.20904666202996       -4.45672392267992
C            3.64923753243345       -2.18105966658671       -4.30505000070908
C            4.01493810646625       -2.58512814946904       -3.02173001719062
C            3.44373308095745       -1.99743240770007       -1.90905715293604
C            2.47626927839035       -0.97193098137645       -2.01932140915464
C            1.86069640877912       -0.32838579863391       -0.88763957334142
C            2.39303091209956       -0.52664929006083        0.45527964196413
C            1.58526548310535       -1.03027640511855        1.48454651549425
C            2.16475936557666       -1.37811020195983        2.71747992413974
C            3.50184447317385       -1.18769714706438        2.96258857988150
C            4.32376600758175       -0.58279523077758        2.00465903215618
C            5.67476665849908       -0.31980986273683        2.30067229919213
C            6.48610906073304        0.31796681193926        1.39314663761485
C            5.95437550393422        0.71897733641043        0.16847538826134
C            4.63487719452811        0.45547156959293       -0.14741526568261
C            3.77346996886458       -0.22756124942935        0.74308313343934
N            0.18211274397164       -1.23874480183823        1.25932256111161
C           -0.43827561381865       -2.25107946671694        2.11733382150709
H           -3.11565625933625       -0.97018638010385        2.94726262590452
H           -4.81546010663073       -1.06663486474853        2.49501810949890
H           -3.68084238048682       -2.23918441018555        1.84069270192248
H           -4.28661956068999       -0.56136771751598        0.15901347565144
H           -5.03836921124448        1.29663248737062        1.22862706293487
H           -3.48938408459838        1.91791629041666        0.67776632662054
H           -3.70024624614412        1.41348871259737        2.35750174440786
H           -1.05588087042906       -1.24684526599144       -1.13184373539487
H           -1.68033649589976       -1.95659790791243       -3.44312236945146
H           -2.44548108508310       -1.02786192578528       -5.56916735904927
H           -3.90440525681066        0.97335554602558       -5.60785849635592
H           -4.56953679931178        2.02889838560932       -3.47835483422940
H           -3.81667593512904        1.12376926202840       -1.35385120742100
H           -4.72451396966927       -2.25766068824740       -1.09074055475558
H           -5.37592462164365       -4.60470413820003       -0.91453315932167
H           -3.66655138476587       -6.36255378130306       -0.60120379528845
H           -1.28086578182111       -5.73387745153370       -0.46733220330753
H           -0.60954281340981       -3.38206563868615       -0.61728620683713
H            2.54596587446152        2.44531063230442        1.44987279782227
H            3.02033860583911        4.54724310156555        0.28268758690483
H            1.78038301722384        6.60830289035508        0.88843044625523
H            0.11558042087159        6.55013765081952        2.69187448200829
H           -1.52316758149682        2.23901020906381       -0.89238205547422
H           -0.95819447410336        2.80642964992388        0.67919478596298
H            0.05745996975248        3.04139629948355       -0.74005934092280
H           -0.39127688893043        1.56095085387906       -2.62474870175025
H            0.77252001516338        0.64682440551548       -4.50309527459107
H            2.38992546275459       -0.90675380958174       -5.45113452515237
H            4.10461483917234       -2.63544507232605       -5.17555358206418
H            4.75300379686400       -3.36602165810724       -2.89477416895821
H            3.74558853506277       -2.35845779094404       -0.93427648877645
H            1.57670866686549       -1.81223961101020        3.51251296514876
H            3.90856691550202       -1.48011122297211        3.92057014022421
H            6.07860064118660       -0.61391500999995        3.26008760048629
H            7.52201306833244        0.51719512445000        1.63581738363703
H            6.58192645907168        1.24107028128755       -0.54199611731635
H            4.26455688886161        0.80397313517229       -1.10297450204729
H            0.15914211903329       -3.16310145364169        2.09584853389655
H           -1.43129312284132       -2.50285249542791        1.74468390227856
H           -0.54685409410328       -1.91711617162469        3.15447034325109
94
 energy: -148.470647844775 gnorm: 0.014315396075 xtb: 6.7.1 (edcfbbe)
C           -3.79529598128824       -1.19525719329241        2.12375548345311
C           -3.59141530321369       -0.26283649775339        0.93482943574918
C           -3.94787927889623        1.17513590503254        1.32720156090883
N           -2.25839762973857       -0.38456376784084        0.31651450112180
C           -2.11979629739012       -1.16915537625736       -0.94247279225243
C           -2.68458998355355       -0.50860215897110       -2.19820889123876
C           -2.31389774602404       -1.08781150471530       -3.41133304787094
C           -2.74442431628990       -0.56702013101748       -4.61697706962713
C           -3.55670533161786        0.55440204335885       -4.64358271236237
C           -3.92675391478650        1.14086285762114       -3.44902835886588
C           -3.49428582937374        0.61695666237089       -2.23871923987992
C           -2.60760731686191       -2.60961274945042       -0.82193780610606
C           -3.94464112900772       -2.97871282247207       -0.92479118533512
C           -4.32174406717816       -4.30906752348978       -0.83379193490580
C           -3.37168665548096       -5.29912931787620       -0.65728899836068
C           -2.03618232325233       -4.94757544778425       -0.57732649300599
C           -1.66125509587303       -3.61835866907978       -0.65986970919710
P           -0.80343319742969        0.06416662398002        0.98921441806390
S           -1.12947280411866        1.14586318974224        2.81135085883952
S            0.75306629361190        1.66213538831391        3.43735043690172
C            1.02938257066949        3.28066599584737        2.70902629135630
C            1.99540470637460        3.33305835291302        1.71511483829111
C            2.27456581821422        4.52353225738260        1.06876929292719
C            1.58166977019324        5.67196699769976        1.41211445647285
C            0.64216857562884        5.63468205493373        2.42724442307819
C            0.37058382488564        4.44899645537470        3.09857403748495
C           -0.65144403926335        4.48411476839088        4.20783490494944
F           -0.30269287775750        3.76329317678565        5.28001293860954
F           -0.87702754555928        5.72947790330451        4.64290292208222
F           -1.84648603901539        4.00729881118535        3.79993175781233
N            0.04999693913430        1.07875411529975       -0.02393154928228
C           -0.62667575469929        2.35404381262034       -0.26163888522531
C            0.78047845201063        0.52069059038839       -1.12223783468433
C            0.40162170130688        0.86503254768889       -2.43131870737458
C            1.05733968336137        0.34632864801064       -3.50616806518593
C            2.07853503358872       -0.60651592338892       -3.33564997817369
C            2.69222350486949       -1.21185705347795       -4.45058685595363
C            3.64613156943077       -2.17355552190418       -4.28663658217018
C            4.00861769478409       -2.56891543585340       -2.99129047180515
C            3.44688031911833       -1.98170792577267       -1.88864847850201
C            2.47748337360410       -0.96300598971282       -2.01589248400452
C            1.85825057391843       -0.31715045035533       -0.89724591527117
C            2.39216679531472       -0.52858165855860        0.46480352617937
C            1.59468635303607       -1.02031269067583        1.48265034879421
C            2.15574259729802       -1.36587815848190        2.72498858823810
C            3.48314454155468       -1.18400871759683        2.96822960520542
C            4.31569180541634       -0.58144766367537        2.00716835876821
C            5.67009126630634       -0.31703299956233        2.29374305154891
C            6.46672762275343        0.31412656466685        1.38320005618083
C            5.92269236883474        0.71064347175644        0.15343142356633
C            4.61594310270067        0.44665708095127       -0.16169118001423
C            3.76597754445345       -0.22812322622368        0.74212078010992
N            0.19379147014285       -1.25121261828625        1.25084513592186
C           -0.43586648968640       -2.26070982281477        2.10538431506734
H           -3.10460542872053       -0.95637948838844        2.93075925423790
H           -4.80768715096489       -1.06679952417622        2.49641968105303
H           -3.67367844634965       -2.23643128101662        1.83345477210290
H           -4.27455496828034       -0.57548534904023        0.14185318432543
H           -5.02540202533670        1.30154590640302        1.24674970585883
H           -3.47372170933791        1.90516201451888        0.67652950750055
H           -3.66383029426449        1.39630411096870        2.35358823744261
H           -1.03390318673014       -1.23481315589786       -1.11038435219444
H           -1.67760769476354       -1.96021737007476       -3.41627509021896
H           -2.44127108438099       -1.03396340696476       -5.54177322329762
H           -3.89495696970955        0.96516194700173       -5.58311140069781
H           -4.55768596448999        2.01705506691274       -3.45476113243499
H           -3.80799033229526        1.11049537548677       -1.33361747153586
H           -4.70908105802073       -2.23648603957510       -1.09808422471125
H           -5.36394119008871       -4.57657199938563       -0.91661395554172
H           -3.66598639768266       -6.33615429118064       -0.60042110317245
H           -1.28286984715318       -5.71256175410520       -0.46422731256856
H           -0.61096891380599       -3.36695434373216       -0.61542138099166
H            2.52735773342716        2.43247661805231        1.44950342379594
H            3.02262166026568        4.54613578960931        0.29246069641904
H            1.77746423378386        6.60027614367756        0.90020984759498
H            0.12038880899649        6.53604324674933        2.70761909031926
H           -1.51317750928119        2.24779769562152       -0.89360319787831
H           -0.93988207097615        2.78556951616485        0.69180349395279
H            0.07270188526396        3.03897541360639       -0.73714085889450
H           -0.40824990899077        1.55147190074727       -2.60900561673435
H            0.77105961996297        0.64535353203127       -4.50150002649474
H            2.38345755211808       -0.90814832373498       -5.43919005559622
H            4.10576228673266       -2.63497577005757       -5.14757275660093
H            4.73954790168365       -3.35323512172669       -2.86613623096249
H            3.74208703117959       -2.32482616171758       -0.90914327144061
H            1.55169314675403       -1.79190794211049        3.50744229420130
H            3.90083559563502       -1.48077057833891        3.91686018028759
H            6.06357097601077       -0.61217122504432        3.25432122773202
H            7.50135687271339        0.51749050886118        1.61461396845678
H            6.54799366540531        1.23601251069084       -0.55241651718363
H            4.23329382995172        0.77988965956589       -1.11428697345427
H            0.17273323639769       -3.16238947062394        2.08676278198817
H           -1.42200104543697       -2.49860331125027        1.70753205732162
H           -0.55227076438150       -1.92853830780614        3.14160222698673
94
 energy: -148.472960118346 gnorm: 0.012679055862 xtb: 6.7.1 (edcfbbe)
C           -3.78942635932991       -1.19793755362189        2.11951900792022
C           -3.59260525972558       -0.26532011811121        0.93087088619447
C           -3.93786887652181        1.17133547923309        1.32966831174507
N           -2.25835004296896       -0.38111230786311        0.31687194582340
C           -2.10317056181573       -1.16300201281070       -0.93736158141333
C           -2.66891194879586       -0.50896512730423       -2.18715375826128
C           -2.30204479435256       -1.09431160921038       -3.39744796880837
C           -2.73690345383547       -0.57503623783926       -4.60093692103671
C           -3.54926767218805        0.54725394909137       -4.62418564718663
C           -3.91760435273843        1.13540898920923       -3.42934813767732
C           -3.48187937824801        0.61342293274366       -2.22016304778395
C           -2.59221610323011       -2.59757193148720       -0.82306344999019
C           -3.93144108131587       -2.95569389198060       -0.93212953189716
C           -4.31497131729246       -4.28350645495955       -0.83968796237144
C           -3.36967818060776       -5.27798547598676       -0.65772180499041
C           -2.03148695010968       -4.93459059663513       -0.57582402306802
C           -1.64956473269182       -3.60799274432258       -0.65860133549500
P           -0.80383410779091        0.06650844648545        0.97914807121108
S           -1.16898760925479        1.15167871311911        2.78345767755371
S            0.72408289028079        1.63844432714893        3.39605920081710
C            1.01875672108727        3.26371689614063        2.68368223009016
C            1.98898891523806        3.31908807016250        1.69462777538918
C            2.27735401759729        4.51610761394323        1.06260439699901
C            1.58850140694902        5.66473126865445        1.41376463752167
C            0.64691151401756        5.62402243992332        2.42726652145376
C            0.36814929776641        4.43178497984386        3.08435669979007
C           -0.65338033424980        4.45889277620055        4.19555839652905
F           -0.30040375465387        3.72881175332855        5.25716648839576
F           -0.87982647073409        5.69700208229114        4.63653088559856
F           -1.84531020271128        3.97973481037139        3.78156556766549
N            0.05816931036538        1.08963484414541       -0.01995050567652
C           -0.61521522128382        2.36509838371877       -0.25821164458869
C            0.77448417593248        0.52270764519721       -1.12468248708704
C            0.38586687386143        0.86118198743322       -2.43478502777264
C            1.04539969895518        0.34233398343560       -3.50703611578757
C            2.07305472874134       -0.60477329243109       -3.33093950519073
C            2.69305042665701       -1.21500638359044       -4.44037132998906
C            3.64843598692924       -2.17345997267468       -4.26501386955929
C            4.00995678103355       -2.56044337282487       -2.96479283336349
C            3.44692213876381       -1.96683723818779       -1.86870937904898
C            2.47188559839573       -0.95516804887925       -2.01093962871183
C            1.84936805521230       -0.30994869010037       -0.89772537726125
C            2.38203250456012       -0.52345500639930        0.46869454316040
C            1.58771152689001       -1.01279866802885        1.48337410813371
C            2.14283845671725       -1.35351875559631        2.73167458245564
C            3.47101947383499       -1.17504248934829        2.97192334329889
C            4.30396602807862       -0.57705419154937        2.00616350285419
C            5.66049873978047       -0.31237254135343        2.28448482370264
C            6.45059733801569        0.31596051115108        1.36612993823362
C            5.90144703062667        0.70815834068971        0.13514143009147
C            4.59582298112384        0.44213507216195       -0.17363686928744
C            3.75346477523027       -0.22568792946146        0.74247121533576
N            0.19059633069408       -1.24922091650676        1.24733138736668
C           -0.43974186730788       -2.26908186980855        2.08791838484810
H           -3.09227486792734       -0.95313386379542        2.91856786429419
H           -4.79904155184515       -1.07152511100115        2.50017778268902
H           -3.66553295283301       -2.23841331397431        1.82910310125660
H           -4.27256405175768       -0.57826154610015        0.13592464914387
H           -5.01516057736978        1.30857161731588        1.26814204216246
H           -3.46423380496380        1.89785626106603        0.67502477928306
H           -3.63310978050942        1.38457010908069        2.35213784411719
H           -1.01451053983579       -1.22378758818278       -1.09424167466899
H           -1.66783827322828       -1.96825488572865       -3.39602113474502
H           -2.43944500562290       -1.04485623952735       -5.52548350429522
H           -3.89036045864787        0.95653216357605       -5.56220743652959
H           -4.55121489139632        2.00944958382360       -3.43200481193267
H           -3.79212086846993        1.10390406660468       -1.31242384736134
H           -4.68992618262180       -2.20870768172156       -1.11258035724266
H           -5.35867323149948       -4.54474437040550       -0.92073897875103
H           -3.67027802160395       -6.31215389708084       -0.59559229729906
H           -1.28185387404737       -5.70167123135692       -0.45734591080584
H           -0.59915522209647       -3.35718571839825       -0.61533764408420
H            2.51485170469019        2.41532131267820        1.42882246083356
H            3.03295925999302        4.54523439671424        0.29400800988758
H            1.78800512585995        6.59695055851250        0.91073176597673
H            0.13025711075633        6.52450327497847        2.72082753109194
H           -1.50233493276133        2.26400133437343       -0.88948836411952
H           -0.92348466348240        2.79020805321964        0.69751774120265
H            0.08864264337943        3.04602658482820       -0.73250403586779
H           -0.43036874402148        1.54160028412404       -2.60364698799473
H            0.76421552925342        0.63360021871343       -4.50664536724277
H            2.38163408407232       -0.91439954812490       -5.42941076404962
H            4.11453344991480       -2.64149769590897       -5.11821917672396
H            4.74178602697361       -3.34291323852857       -2.83611470734602
H            3.73922755236497       -2.29190580008851       -0.88169086743838
H            1.52877805642700       -1.77024485908647        3.51086276553546
H            3.89560113235974       -1.47027351503613        3.91837426971985
H            6.05316776471235       -0.60727418670021        3.24580104825237
H            7.48662833857026        0.52127978422549        1.58665600757637
H            6.52552334489907        1.23036563336186       -0.57364794742166
H            4.20171320557550        0.76152040224376       -1.12669811866362
H            0.17774664632015       -3.16521095984473        2.06884498656072
H           -1.41772159721764       -2.50800952556821        1.67352006483741
H           -0.56930897194311       -1.94533173023177        3.12483500328722
94
 energy: -148.474561514359 gnorm: 0.010491998660 xtb: 6.7.1 (edcfbbe)
C           -3.78275077891496       -1.20346590891063        2.11431669173943
C           -3.59401157100049       -0.26714045853541        0.92774867686369
C           -3.93409537260065        1.16727402759893        1.33296130262306