106
 energy: -167.630968221211 gnorm: 0.173064477577 xtb: 6.7.1 (edcfbbe)
C            3.27924600000000        2.29337200000000       -0.58445000000000
C            3.14267900000000        0.86143200000000       -0.03746400000000
C            3.69578400000000       -0.23356700000000       -0.95675800000000
C            3.92060400000000       -1.51856300000000       -0.44070300000000
C            4.44791100000000       -2.54657600000000       -1.22830700000000
C            4.77273800000000       -2.32142100000000       -2.56913200000000
C            5.28842300000000       -3.34598200000000       -3.37943300000000
C            5.60333500000000       -3.10241400000000       -4.71730800000000
C            5.40756700000000       -1.83567100000000       -5.25881700000000
C            4.89554600000000       -0.80945800000000       -4.46162600000000
C            4.57269800000000       -1.03524200000000       -3.11331100000000
C            4.05521500000000       -0.00906500000000       -2.29734900000000
N            1.77550600000000        0.60808700000000        0.46450600000000
C            1.64391500000000        0.69679100000000        1.94347100000000
C            2.22322200000000        1.96512700000000        2.60016100000000
C            2.05473300000000       -0.56373200000000        2.70304600000000
C            3.36773900000000       -0.82179800000000        3.11385400000000
C            3.68237300000000       -1.99730200000000        3.80485300000000
C            2.69121800000000       -2.94147400000000        4.11360900000000
C            2.99106300000000       -4.13087500000000        4.79824400000000
C            1.98706800000000       -5.05458500000000        5.09761500000000
C            0.67164400000000       -4.79870900000000        4.72222100000000
C            0.35841700000000       -3.62253200000000        4.04205000000000
C            1.35794300000000       -2.68809000000000        3.72790600000000
C            1.05921300000000       -1.50471600000000        3.03606200000000
P            0.42482800000000        0.51131900000000       -0.48901800000000
S            0.76224000000000        0.58889900000000       -2.57219700000000
S           -1.08453300000000        0.95438700000000       -3.40269600000000
C           -1.10958700000000        2.71747900000000       -3.73007600000000
C            0.00683100000000        3.31143500000000       -4.34733100000000
C            0.04577800000000        4.68008100000000       -4.61501300000000
C           -1.04067100000000        5.47942400000000       -4.28607200000000
C           -2.16746600000000        4.90610600000000       -3.69817300000000
C           -2.22721000000000        3.52075600000000       -3.42747700000000
C           -3.48477600000000        2.96372400000000       -2.80032800000000
F           -3.31788700000000        2.64232700000000       -1.49354500000000
F           -4.51483600000000        3.86426000000000       -2.80970900000000
F           -3.97875000000000        1.86553900000000       -3.43033800000000
N           -0.35998100000000       -0.89976400000000       -0.11050400000000
C            0.47508000000000       -2.09438600000000       -0.25426300000000
C           -1.69127200000000       -1.07701300000000       -0.59893000000000
C           -1.97296300000000       -1.98476100000000       -1.64038900000000
C           -3.25623100000000       -2.14415500000000       -2.14828700000000
C           -4.30680600000000       -1.37885700000000       -1.65592600000000
C           -5.58771600000000       -1.52875400000000       -2.21920500000000
C           -6.65898500000000       -0.75350600000000       -1.78648700000000
C           -6.45345900000000        0.19134100000000       -0.79463100000000
C           -5.18487600000000        0.34110900000000       -0.22710100000000
C           -4.07089100000000       -0.45278800000000       -0.60969700000000
C           -2.74951400000000       -0.33114300000000       -0.02112900000000
C           -2.50112600000000        0.47525600000000        1.13953900000000
C           -1.54673900000000        1.53241100000000        1.09810000000000
C           -1.51044200000000        2.45145700000000        2.16989200000000
C           -2.31302400000000        2.31078300000000        3.29688600000000
C           -3.16301200000000        1.22018500000000        3.42006000000000
C           -3.91058900000000        1.05692700000000        4.59934300000000
C           -4.74175200000000       -0.04546200000000        4.77676700000000
C           -4.82627000000000       -1.00193700000000        3.77836700000000
C           -4.08560300000000       -0.84416100000000        2.60351200000000
C           -3.25290000000000        0.28140500000000        2.36286700000000
N           -0.63910300000000        1.67520600000000        0.00499700000000
C           -0.23234700000000        3.04320900000000       -0.29172400000000
H            2.66313100000000        2.47471600000000       -1.46783600000000
H            2.99815800000000        3.04148000000000        0.16317600000000
H            4.31802000000000        2.50370500000000       -0.86412400000000
H            3.85011600000000        0.83632900000000        0.79890300000000
H            3.68335000000000       -1.74470600000000        0.59370300000000
H            4.59469700000000       -3.52660500000000       -0.78190000000000
H            5.44899800000000       -4.34189800000000       -2.97254600000000
H            6.00358900000000       -3.90182200000000       -5.33561900000000
H            5.65032600000000       -1.64326800000000       -6.30125700000000
H            4.74408200000000        0.17201900000000       -4.90548800000000
H            3.91611700000000        0.97376800000000       -2.74100500000000
H            0.58177000000000        0.77914500000000        2.16495000000000
H            3.31430000000000        2.03061900000000        2.53367200000000
H            1.96612100000000        1.99483000000000        3.66694700000000
H            1.80456200000000        2.86889500000000        2.15092000000000
H            4.16680500000000       -0.12229800000000        2.89341700000000
H            4.71494700000000       -2.17144100000000        4.09863100000000
H            4.01128600000000       -4.34817300000000        5.10417600000000
H            2.23120200000000       -5.97069000000000        5.62789300000000
H           -0.11245400000000       -5.51334300000000        4.95754600000000
H           -0.67453900000000       -3.43395800000000        3.75539600000000
H            0.02783600000000       -1.31042500000000        2.73530800000000
H            0.86648200000000        2.70760600000000       -4.63366100000000
H            0.92296500000000        5.11639600000000       -5.08586700000000
H           -1.01627500000000        6.54717100000000       -4.49054400000000
H           -3.01530300000000        5.54858400000000       -3.45650700000000
H           -0.05773600000000       -2.99751000000000        0.06787100000000
H            1.35235300000000       -2.03601900000000        0.38580000000000
H            0.83196700000000       -2.22993600000000       -1.28108100000000
H           -1.18551200000000       -2.56521300000000       -2.11087000000000
H           -3.41148800000000       -2.85036800000000       -2.96207500000000
H           -5.75478700000000       -2.24875900000000       -3.01867500000000
H           -7.63962400000000       -0.87467200000000       -2.23808600000000
H           -7.27296100000000        0.81793600000000       -0.45758400000000
H           -5.06622500000000        1.12037200000000        0.52355200000000
H           -0.82008100000000        3.28934100000000        2.16779100000000
H           -2.22865800000000        3.04401200000000        4.09468300000000
H           -3.84138500000000        1.78885400000000        5.40120000000000
H           -5.31182200000000       -0.16169400000000        5.69369600000000
H           -5.45660900000000       -1.87808100000000        3.90502400000000
H           -4.16007100000000       -1.63602800000000        1.85921800000000
H            0.50027800000000        3.41488100000000        0.42715500000000
H            0.23542100000000        3.12481500000000       -1.27384000000000
H           -1.09258600000000        3.72006100000000       -0.30508700000000
106
 energy: -167.658081932159 gnorm: 0.074924596489 xtb: 6.7.1 (edcfbbe)
C            3.28245349129141        2.28483834161447       -0.59855445587679
C            3.15872690224231        0.85861353653199       -0.04584954629148
C            3.67320384698027       -0.23731677354542       -0.97978621679270
C            3.90535801492954       -1.52053065741436       -0.45026761604835
C            4.43267058100442       -2.53603077496841       -1.21982420614953
C            4.76670822234151       -2.32236478234109       -2.56741070684856
C            5.28971427960358       -3.34374779846856       -3.38334175915398
C            5.59995970907620       -3.09803535909194       -4.70323934050418
C            5.40147839580697       -1.82636603954462       -5.24570370426939
C            4.89525950548288       -0.80843592519793       -4.46524352748139
C            4.56349629412599       -1.02901489476635       -3.11517421481229
C            4.02713411328557       -0.00982517979720       -2.30018262121077
N            1.79786176357154        0.60680778299194        0.47922210031822
C            1.62352402127562        0.69063701958389        1.95620014704156
C            2.22730224729276        1.95616037600171        2.58762091264516
C            2.04815524888006       -0.57793699009254        2.68949117152295
C            3.36545174862547       -0.83525451032875        3.10238292296889
C            3.68049199238879       -1.98834224995645        3.79367139584046
C            2.69514723771401       -2.94038742271358        4.11089279405929
C            2.98929530714928       -4.13315085622045        4.79938116406751
C            1.99388854252733       -5.04020068865210        5.09313145488512
C            0.67332380806288       -4.78375568737128        4.71511820322908
C            0.35691190297689       -3.62426079452586        4.04195053842526
C            1.35448443430449       -2.68368149643158        3.72092499672875
C            1.06386312409193       -1.49983999292675        3.01958658591612
P            0.41386020232404        0.50827245461757       -0.43731783993631
S            0.78890352202792        0.65061914634217       -2.55436653422951
S           -1.09410397966957        0.97076286456506       -3.35227724983117
C           -1.10374676176578        2.72886467767787       -3.71974389009301
C            0.00424811452517        3.30973219156624       -4.33787307007006
C            0.03920236076184        4.66898418641388       -4.60982416766555
C           -1.04471871899777        5.46711554670053       -4.28072535460344
C           -2.16767106811632        4.89715427615015       -3.70157958140637
C           -2.21806318444231        3.52744373852882       -3.42651893338048
C           -3.47335533547469        2.96647960537524       -2.80304295955517
F           -3.29777559134185        2.63677440110015       -1.50495949020342
F           -4.49447348315021        3.85633239813742       -2.81168139598804
F           -3.94615375685905        1.86734074480369       -3.42627857463066
N           -0.37248231072193       -0.91775376829666       -0.09743765710362
C            0.47962181051791       -2.09894691297442       -0.24750164910278
C           -1.70737034735851       -1.06818146937764       -0.60893503193687
C           -1.96901932089500       -1.96767124335560       -1.65739657282448
C           -3.23820971483811       -2.14000314767698       -2.15068284812130
C           -4.30541951794181       -1.37918594049385       -1.65715270361036
C           -5.58942821955852       -1.52323888535269       -2.21743620126291
C           -6.64193458372121       -0.75391992040213       -1.78266871793221
C           -6.42498847940536        0.19335279890508       -0.78304178910529
C           -5.17503862374203        0.34243186489490       -0.21266930689158
C           -4.07312918260610       -0.45359085230301       -0.60256545484480
C           -2.75530608298584       -0.34358889828207       -0.02739370513160
C           -2.51032031655075        0.48716321216423        1.14689020464929
C           -1.56649949715678        1.52539593082483        1.11324621537862
C           -1.50222465728577        2.44216692947857        2.17814508351248
C           -2.29954718154991        2.31377167958672        3.28826130213793
C           -3.16352883566366        1.22075142581962        3.42142134982608
C           -3.91397565408086        1.05085221046521        4.60022624011375
C           -4.73433776865593       -0.03967378386181        4.76531745790414
C           -4.80902893312324       -0.99743091248785        3.75483255155592
C           -4.08871376480059       -0.84250719568878        2.58569744093793
C           -3.26307848745950        0.28286670388383        2.35743816401634
N           -0.66533304067212        1.68331510669559        0.01467598571836
C           -0.24039553246182        3.04586038321873       -0.29287471035435
H            2.65709020453766        2.45471818015651       -1.47461285970450
H            2.99948140107025        3.01530021966886        0.16003922578039
H            4.31801818496994        2.48881412295971       -0.87035212540548
H            3.83326761210929        0.81702661024501        0.81615138488552
H            3.68406198127851       -1.72952087635504        0.58960028154204
H            4.59180755926421       -3.50985304947543       -0.77576789043859
H            5.44732400956545       -4.33265030802846       -2.97324588157125
H            5.99802132791766       -3.89225435743173       -5.32173425833971
H            5.64532705592218       -1.63900184154636       -6.28361251187888
H            4.74545637256785        0.17014378478266       -4.90224504803402
H            3.90853430686415        0.97200196876900       -2.73676996922134
H            0.54651296181417        0.76871089123296        2.13584029198965
H            3.31277977230327        2.01717401853989        2.52388760950545
H            1.96296664864938        1.96979435779640        3.64637927955709
H            1.80791833802666        2.85739048664530        2.14157144296558
H            4.15747665427022       -0.12868140544544        2.89382426959472
H            4.70553802867513       -2.16194572460068        4.09400622367313
H            4.00628854293971       -4.34407166510116        5.10175038072877
H            2.23434551324748       -5.95400916361843        5.62060531860661
H           -0.10431333454570       -5.49845900048370        4.95201962502206
H           -0.66956102526984       -3.43340022146635        3.75573366714969
H            0.03597995616307       -1.30414264121950        2.73300313963829
H            0.85414657645892        2.69851597028036       -4.61427863514614
H            0.91136991550962        5.10155589949462       -5.08171685173791
H           -1.02285881041285        6.52917487863027       -4.48500165881886
H           -3.01458557801003        5.52714343660116       -3.46055348459699
H           -0.07278068977343       -2.98736598574596        0.06248199326447
H            1.35146541396539       -2.01561607000832        0.40037909753203
H            0.83595807801814       -2.23580897500344       -1.27399758110985
H           -1.17737714367767       -2.55502574042940       -2.10089250069270
H           -3.40128795055871       -2.85065846699338       -2.94990442624383
H           -5.74735429374003       -2.24169844900861       -3.01134059095636
H           -7.62216089663812       -0.87299119903197       -2.22687204002431
H           -7.24268809266472        0.81971811229550       -0.45195431651824
H           -5.04911405450194        1.11207209195110        0.53709074017113
H           -0.82000678931242        3.27986635857838        2.15376053482288
H           -2.22743612056016        3.04829899892238        4.07848955180666
H           -3.83768271802190        1.78323740054569        5.39306525279233
H           -5.30426901058745       -0.15918664104856        5.67771656115819
H           -5.43571791021669       -1.87008005022429        3.88520731871128
H           -4.15777455985519       -1.62395170821805        1.83988027022612
H            0.49162898359814        3.42317435060696        0.42574439357615
H            0.22646580115320        3.09873111000262       -1.27999109800182
H           -1.10458803464869        3.71112356204725       -0.30058720440415
106
 energy: -167.667165114259 gnorm: 0.017364598833 xtb: 6.7.1 (edcfbbe)
C            3.29005680023068        2.27376173246201       -0.60973356984144
C            3.16957737706080        0.85394255302112       -0.05574358709975
C            3.65674348194560       -0.23695879715757       -0.99545409581153
C            3.88782469352989       -1.52097631329915       -0.45415449495751
C            4.41073321465968       -2.52763484528624       -1.21285192337922
C            4.74868640521166       -2.32172464060305       -2.56648457752934
C            5.28476585782912       -3.33942282332469       -3.38290039936504
C            5.59562528433313       -3.09273232182915       -4.69034101131238
C            5.39576384656047       -1.81586109369085       -5.23511558043021
C            4.88686694314096       -0.80612257028195       -4.46742707896052
C            4.54140610625551       -1.02700054172595       -3.11766062072893
C            3.99987088442768       -0.00855971317295       -2.30299714724548
N            1.81370762787339        0.60517686951911        0.48135725693751
C            1.61199093329763        0.68441359971343        1.95693812834439
C            2.21860345146130        1.94145178408566        2.58652325350673
C            2.03516267064934       -0.58140021870099        2.68371694655761
C            3.36002582191822       -0.83802743161924        3.09088765734063
C            3.67660646488332       -1.97923737084733        3.77506994066523
C            2.69593317601583       -2.93842590286260        4.09927199866541
C            2.98850742360098       -4.13032692343478        4.79579116537387
C            2.00025250677854       -5.02693482651734        5.08847758538182
C            0.67362428079388       -4.77119169638822        4.70866876310463
C            0.35512363367909       -3.62525975589915        4.03710399868937
C            1.35218880100405       -2.68245573504850        3.70769602512435
C            1.06240120684535       -1.49529421014353        3.00691033513523
P            0.40283231106998        0.51071960962421       -0.39708194795193
S            0.79643636531844        0.69044936557824       -2.50719637326401
S           -1.09291899148689        0.98704139151608       -3.27970140506988
C           -1.09579711240002        2.73599652118811       -3.69675346036089
C            0.00736674284120        3.30354695990112       -4.31890445092280
C            0.03602654966493        4.65684553675773       -4.60377085915850
C           -1.04737769579501        5.45650244012119       -4.28008422361387
C           -2.16963400390085        4.89086474493082       -3.70379876640671
C           -2.20990669158319        3.53169957829014       -3.41919535289403
C           -3.46017823612386        2.96091453270052       -2.79896376614720
F           -3.27296390907527        2.62350835606985       -1.50761238654633
F           -4.47541473596851        3.83574066000576       -2.80638521121630
F           -3.90616456571685        1.85847808618770       -3.41834095092435
N           -0.37839086048633       -0.92791165449752       -0.08889254744460
C            0.48245590072781       -2.10289587826948       -0.23589469651422
C           -1.71548563986946       -1.05963996566077       -0.61379103459049
C           -1.95919393094386       -1.95780578014048       -1.66741673430150
C           -3.21912738968501       -2.13411582308353       -2.15417118936924
C           -4.29626349824128       -1.37622127605049       -1.65856791630324
C           -5.58484043490431       -1.51649793087426       -2.21226245871253
C           -6.62291908768207       -0.74915545629527       -1.77115575708738
C           -6.39533497075666        0.19903895576272       -0.76410169904955
C           -5.15807806594829        0.34483307987095       -0.19423424071920
C           -4.06538682757788       -0.45188247691072       -0.59979418234444
C           -2.75216331862010       -0.35064043478928       -0.03465618904203
C           -2.51253654368396        0.49890142230844        1.15003715933616
C           -1.58215513672512        1.52154413384679        1.11991293525754
C           -1.49630220325695        2.44014969255667        2.18195326089580
C           -2.28907060053491        2.31736453965812        3.28212024030642
C           -3.16254054877110        1.22294999282525        3.41835609006692
C           -3.91615102062301        1.04506560935951        4.59587033929367
C           -4.72854207266169       -0.04029896529463        4.74802482603690
C           -4.79772880562709       -0.99569826013689        3.72435579971736
C           -4.09051513137811       -0.83955420569571        2.56155389269905
C           -3.26628189757034        0.28725653588245        2.35012525416994
N           -0.69315300574170        1.69254881264984        0.01053411895315
C           -0.25661710311019        3.05122996226999       -0.29938794950801
H            2.65728034748467        2.42562556012699       -1.48044179839504
H            3.00396523304020        2.99486753713034        0.15212765581201
H            4.32218013222265        2.47193928125923       -0.88336814393502
H            3.82106751287837        0.79375836839762        0.82261512803239
H            3.67347734344612       -1.71003811317698        0.58967630941322
H            4.58828274171808       -3.49770815275573       -0.77232486587594
H            5.44271542532455       -4.32145325164297       -2.96308363634280
H            5.99576724879716       -3.88095364986586       -5.31023410279596
H            5.64478021149532       -1.63446544002738       -6.26981576899151
H            4.74075204495087        0.17499414540239       -4.89386025523488
H            3.88660082614832        0.96941700207366       -2.74205721070931
H            0.52488890065401        0.75739597430552        2.09972873015790
H            3.30007282014513        1.98739802599038        2.51184235678434
H            1.95757634414394        1.94911536748804        3.64258160775233
H            1.80492393239776        2.84020059068524        2.13523063847743
H            4.14626576325053       -0.12807175714044        2.88118220301073
H            4.69603207054544       -2.15365787715116        4.08541455320493
H            4.00648591911591       -4.32959352166834        5.09471054230170
H            2.23598088132853       -5.93899914540650        5.61587462528914
H           -0.09710530211910       -5.48769624142539        4.95024908413936
H           -0.66713557567714       -3.42731174158606        3.75069695602285
H            0.03432806804231       -1.30482809742810        2.73016476984244
H            0.85008825352768        2.68224276962293       -4.58178664274046
H            0.90393860517058        5.08500450739256       -5.07999672319512
H           -1.02647836449808        6.51448968838009       -4.48580878817035
H           -3.02139857170737        5.50938294551507       -3.47038701952874
H           -0.08088121489313       -2.98242420451209        0.06865731788340
H            1.34581791107836       -1.99482605506563        0.41931644984636
H            0.84481747708430       -2.24249731167255       -1.25912601796667
H           -1.15616486170056       -2.53252333274239       -2.09925961572040
H           -3.39503212613359       -2.84627658543280       -2.94480627215286
H           -5.73323159441222       -2.23473028756372       -3.00423714008279
H           -7.60486848164930       -0.86010047965241       -2.20688304440485
H           -7.21166302656351        0.82750041466996       -0.44033870445781
H           -5.01989062988945        1.10183966526036        0.56137662720381
H           -0.80967148194008        3.26915230947777        2.13939710980505
H           -2.22865178432395        3.04811898676185        4.07317485314800
H           -3.83058368817526        1.77958716550168        5.38230079060278
H           -5.30021210857941       -0.16865560190480        5.65492748427385
H           -5.41703586573214       -1.86932663092560        3.86113166341656
H           -4.15593456632724       -1.60609649764437        1.80508489579648
H            0.47901884007894        3.43302078302685        0.41386753985860
H            0.20489675453088        3.07533953686142       -1.28925178030731
H           -1.12409209143846        3.70777513192932       -0.30253949650387
106
 energy: -167.670080019260 gnorm: 0.015165213540 xtb: 6.7.1 (edcfbbe)
C            3.29638695801344        2.26541683032961       -0.61570437044392
C            3.16883503706387        0.85110164708881       -0.05563943622220
C            3.63782541669713       -0.23689940069166       -0.99948036057787
C            3.86774222909360       -1.52042033228612       -0.45351404441774
C            4.39010559631240       -2.52618009707580       -1.21081058612225
C            4.72613123925515       -2.31997674555032       -2.56614890694141
C            5.27262889511754       -3.33552809582083       -3.37832575866228
C            5.59036167972607       -3.08765828873231       -4.68346023675705
C            5.38921630042641       -1.81005389763496       -5.23067890269472
C            4.86955069601223       -0.80357115438392       -4.46741603015552
C            4.51454065210574       -1.02883526611986       -3.12024086476590
C            3.97088459350803       -0.00935092086348       -2.30863996740011
N            1.81274866791109        0.60854736909847        0.47892187961300
C            1.59818486002261        0.68120076261487        1.95158237529157
C            2.20580104066004        1.93136974037932        2.58574960016082
C            2.02201654940083       -0.58313981135770        2.67147472884040
C            3.35164355194213       -0.83561421406561        3.07208926156333
C            3.67155330153053       -1.97352663718293        3.75778697950592
C            2.69277004309037       -2.93466506278505        4.08549070535057
C            2.98998842353809       -4.12295216393722        4.78660917129542
C            2.00379556700766       -5.01926811741763        5.08467381913642
C            0.67429363488816       -4.76746627833761        4.70530969473219
C            0.35257860212252       -3.62588792367364        4.02984049256660
C            1.34893790796933       -2.68364102795441        3.69649489048715
C            1.05291167602291       -1.49784713997185        2.99656296732045
P            0.39924364345791        0.51922624995092       -0.38662349187598
S            0.81995728317842        0.71691227364337       -2.48004409336424
S           -1.09049551162430        0.99116509020455       -3.20853150009960
C           -1.08415529093296        2.73276851346901       -3.65720994686233
C            0.01795501321334        3.29188906971639       -4.28781349171978
C            0.03903742449481        4.64178592367462       -4.59460717076395
C           -1.04707248701648        5.44348128789536       -4.28399613155695
C           -2.17145218723143        4.88251725714792       -3.70577866880246
C           -2.20265905476292        3.52755224773131       -3.40094082214593
C           -3.44760282807347        2.94525281766689       -2.78329873888440
F           -3.25379590304134        2.60809552660051       -1.49219872559528
F           -4.47029365385345        3.80412560868201       -2.79263033986612
F           -3.87028553565546        1.83487640934408       -3.40285879568634
N           -0.37310514815099       -0.92375236611058       -0.08570979524528
C            0.48819641913307       -2.09960710200703       -0.21847731654534
C           -1.70700527749221       -1.05322554755831       -0.61595882503224
C           -1.94364088211018       -1.94763304193143       -1.67613935274944
C           -3.20461717099892       -2.12518895758941       -2.15985130805084
C           -4.28264239057204       -1.36981126699235       -1.65876463114322
C           -5.57462204411667       -1.50662350330724       -2.20623186450600
C           -6.60733714380717       -0.73636865118128       -1.75686406252122
C           -6.37456855683066        0.20964400996681       -0.74641782233941
C           -5.13776306476156        0.34904028080100       -0.17923850271084
C           -4.05130523865842       -0.44881338012411       -0.59932184301635
C           -2.74091556524985       -0.34865292611263       -0.03797940639474
C           -2.50619248084546        0.50496395261484        1.14823152483711
C           -1.58166996579236        1.52624133953971        1.11911116852219
C           -1.48917118921157        2.44386990923980        2.18366460148001
C           -2.28325854990693        2.31852123152749        3.28218292881812
C           -3.15948555902028        1.22367473457834        3.41249672503730
C           -3.91633409313704        1.03861318560960        4.58723360546768
C           -4.72639644194910       -0.05014730126323        4.72962706003060
C           -4.79376172728355       -1.00095463827736        3.69911363003958
C           -4.08900292848774       -0.83637588844702        2.53828320809218
C           -3.26271031886617        0.29202979457649        2.34269003599754
N           -0.70595629251651        1.70042798563144       -0.00082210579552
C           -0.27494738213987        3.05899301599985       -0.31321391809674