      -----------------------------------------------------------      
     |                   =====================                   |     
     |                           x T B                           |     
     |                   =====================                   |     
     |                         S. Grimme                         |     
     |          Mulliken Center for Theoretical Chemistry        |     
     |                    University of Bonn                     |     
      -----------------------------------------------------------      

   * xtb version 6.7.1 (edcfbbe) compiled by 'conda@3ef47c1a292c' on 2024-11-25

   xtb is free software: you can redistribute it and/or modify it under
   the terms of the GNU Lesser General Public License as published by
   the Free Software Foundation, either version 3 of the License, or
   (at your option) any later version.
   
   xtb is distributed in the hope that it will be useful,
   but WITHOUT ANY WARRANTY; without even the implied warranty of
   MERCHANTABILITY or FITNESS FOR A PARTICULAR PURPOSE.  See the
   GNU Lesser General Public License for more details.
   
   Cite this work as:
   * C. Bannwarth, E. Caldeweyher, S. Ehlert, A. Hansen, P. Pracht,
     J. Seibert, S. Spicher, S. Grimme, WIREs Comput. Mol. Sci., 2020, 11,
     e01493. DOI: 10.1002/wcms.1493
   
   for GFN2-xTB:
   * C. Bannwarth, S. Ehlert and S. Grimme., J. Chem. Theory Comput., 2019,
     15, 1652-1671. DOI: 10.1021/acs.jctc.8b01176
   for GFN1-xTB:
   * S. Grimme, C. Bannwarth, P. Shushkov, J. Chem. Theory Comput., 2017,
     13, 1989-2009. DOI: 10.1021/acs.jctc.7b00118
   for GFN0-xTB:
   * P. Pracht, E. Caldeweyher, S. Ehlert, S. Grimme, ChemRxiv, 2019, preprint.
     DOI: 10.26434/chemrxiv.8326202.v1
   for GFN-FF:
   * S. Spicher and S. Grimme, Angew. Chem. Int. Ed., 2020, 59, 15665-15673.
     DOI: 10.1002/anie.202004239
   
   for ALPB and GBSA implicit solvation:
   * S. Ehlert, M. Stahn, S. Spicher, S. Grimme, J. Chem. Theory Comput.,
     2021, 17, 4250-4261. DOI: 10.1021/acs.jctc.1c00471
   
   for ddCOSMO and CPCM-X implicit solvation:
   * M. Stahn, S. Ehlert, S. Grimme, J. Phys. Chem. A,
     2023, XX, XXXX-XXXX. DOI: 10.1021/acs.jpca.3c04382
   
   for DFT-D4:
   * E. Caldeweyher, C. Bannwarth and S. Grimme, J. Chem. Phys., 2017,
     147, 034112. DOI: 10.1063/1.4993215
   * E. Caldeweyher, S. Ehlert, A. Hansen, H. Neugebauer, S. Spicher,
     C. Bannwarth and S. Grimme, J. Chem. Phys., 2019, 150, 154122.
     DOI: 10.1063/1.5090222
   * E. Caldeweyher, J.-M. Mewes, S. Ehlert and S. Grimme, Phys. Chem. Chem. Phys.
     2020, 22, 8499-8512. DOI: 10.1039/D0CP00502A
   
   for sTDA-xTB:
   * S. Grimme and C. Bannwarth, J. Chem. Phys., 2016, 145, 054103.
     DOI: 10.1063/1.4959605
   
   in the mass-spec context:
   * V. Asgeirsson, C. Bauer and S. Grimme, Chem. Sci., 2017, 8, 4879.
     DOI: 10.1039/c7sc00601b
   * J. Koopman and S. Grimme, ACS Omega 2019, 4, 12, 15120-15133.
     DOI: 10.1021/acsomega.9b02011
   
   for metadynamics refer to:
   * S. Grimme, J. Chem. Theory Comput., 2019, 155, 2847-2862
     DOI: 10.1021/acs.jctc.9b00143
   
   for SPH calculations refer to:
   * S. Spicher and S. Grimme, J. Chem. Theory Comput., 2021, 17, 1701-1714
     DOI: 10.1021/acs.jctc.0c01306
   
   for ONIOM refer to:
   * C. Plett, A. Katbashev, S. Ehlert, S. Grimme, M. Bursch,
     Phys. Chem. Chem. Phys., 2023, 25, 17860-17868. DOI: 10.1039/D3CP02178E
   
   for DIPRO refer to:
   * J. Kohn, N. Gildemeister, S. Grimme, D. Fazzi, A. Hansen,
     J. Chem. Phys., 2023, just accepted.
   
   for PTB refer to:
   * S. Grimme, M. Mueller, A. Hansen, J. Chem. Phys., 2023, 158, 124111.
     DOI: 10.1063/5.0137838
   
   with help from (in alphabetical order)
   P. Atkinson, C. Bannwarth, F. Bohle, G. Brandenburg, E. Caldeweyher
   M. Checinski, S. Dohm, S. Ehlert, S. Ehrlich, I. Gerasimov, C. Hölzer
   A. Katbashev, J. Kohn, J. Koopman, C. Lavigne, S. Lehtola, F. März, M. Müller,
   F. Musil, H. Neugebauer, J. Pisarek, C. Plett, P. Pracht, F. Pultar,
   J. Seibert, P. Shushkov, S. Spicher, M. Stahn, M. Steiner, T. Strunk,
   J. Stückrath, T. Rose, and J. Unsleber
   
 * started run on 2024/12/16 at 20:13:02.074     
   ID    Z sym.   atoms
    1    6 C      1-3, 5-7, 11-16, 18-46
    2    7 N      4
    3   15 P      8
    4   34 Se     9
    5   16 S      10
    6    8 O      17, 47
    7    1 H      48-88

           -------------------------------------------------
          |                Calculation Setup                |
           -------------------------------------------------

          program call               : xtb --gfn2 --opt extreme -P 8 --charge 1 molecule.xyz
          hostname                   : node20
          coordinate file            : molecule.xyz
          omp threads                :                     8


           -------------------------------------------------
          |                 G F N 2 - x T B                 |
           -------------------------------------------------

        Reference                      10.1021/acs.jctc.8b01176
      * Hamiltonian:
        H0-scaling (s, p, d)           1.850000    2.230000    2.230000
        zeta-weighting                 0.500000
      * Dispersion:
        s8                             2.700000
        a1                             0.520000
        a2                             5.000000
        s9                             5.000000
      * Repulsion:
        kExp                           1.500000    1.000000
        rExp                           1.000000
      * Coulomb:
        alpha                          2.000000
        third order                    shell-resolved
        anisotropic                    true
        a3                             3.000000
        a5                             4.000000
        cn-shift                       1.200000
        cn-exp                         4.000000
        max-rad                        5.000000


          ...................................................
          :                      SETUP                      :
          :.................................................:
          :  # basis functions                 247          :
          :  # atomic orbitals                 244          :
          :  # shells                          138          :
          :  # electrons                       238          :
          :  max. iterations                   250          :
          :  Hamiltonian                  GFN2-xTB          :
          :  restarted?                      false          :
          :  GBSA solvation                  false          :
          :  PC potential                    false          :
          :  electronic temp.          300.0000000     K    :
          :  accuracy                    1.0000000          :
          :  -> integral cutoff          0.2500000E+02      :
          :  -> integral neglect         0.1000000E-07      :
          :  -> SCF convergence          0.1000000E-05 Eh   :
          :  -> wf. convergence          0.1000000E-03 e    :
          :  Broyden damping             0.4000000          :
          :  net charge                          1          :
          :  unpaired electrons                  0          :
          ...................................................

 iter      E             dE          RMSdq      gap      omega  full diag
   1   -129.8844494 -0.129884E+03  0.478E+00    0.76       0.0  T
   2   -130.0796199 -0.195170E+00  0.292E+00    1.30       1.0  T
   3   -130.0631362  0.164837E-01  0.154E+00    1.59       1.0  T
   4   -130.1212657 -0.581294E-01  0.569E-01    1.43       1.0  T
   5   -130.1262750 -0.500929E-02  0.293E-01    1.47       1.0  T
   6   -130.1288930 -0.261805E-02  0.183E-01    1.45       1.0  T
   7   -130.1298197 -0.926694E-03  0.696E-02    1.46       1.0  T
   8   -130.1299564 -0.136675E-03  0.389E-02    1.45       1.0  T
   9   -130.1299653 -0.896888E-05  0.274E-02    1.46       1.0  T
  10   -130.1299717 -0.637752E-05  0.124E-02    1.46       1.0  T
  11   -130.1299747 -0.298974E-05  0.741E-03    1.46       1.4  T
  12   -130.1299760 -0.128131E-05  0.328E-03    1.46       3.3  T
  13   -130.1299762 -0.197761E-06  0.148E-03    1.46       7.2  T
  14   -130.1299762 -0.157071E-07  0.736E-04    1.46      14.5  T
  15   -130.1299762 -0.148846E-07  0.331E-04    1.46      32.2  T

   *** convergence criteria satisfied after 15 iterations ***

         #    Occupation            Energy/Eh            Energy/eV
      -------------------------------------------------------------
         1        2.0000           -0.9742433             -26.5105
       ...           ...                  ...                  ...
       113        2.0000           -0.4942021             -13.4479
       114        2.0000           -0.4884771             -13.2921
       115        2.0000           -0.4857539             -13.2180
       116        2.0000           -0.4763832             -12.9630
       117        2.0000           -0.4724221             -12.8553
       118        2.0000           -0.4699460             -12.7879
       119        2.0000           -0.4366380             -11.8815 (HOMO)
       120                         -0.3830314             -10.4228 (LUMO)
       121                         -0.3405135              -9.2658
       122                         -0.3345401              -9.1033
       123                         -0.3334584              -9.0739
       124                         -0.3258739              -8.8675
       ...                                ...                  ...
       244                          9.0700585             246.8089
      -------------------------------------------------------------
                  HL-Gap            0.0536067 Eh            1.4587 eV
             Fermi-level           -0.4098347 Eh          -11.1522 eV

 SCC (total)                   0 d,  0 h,  0 min,  2.710 sec
 SCC setup                      ...        0 min,  0.000 sec (  0.012%)
 Dispersion                     ...        0 min,  0.002 sec (  0.056%)
 classical contributions        ...        0 min,  0.000 sec (  0.005%)
 integral evaluation            ...        0 min,  0.007 sec (  0.267%)
 iterations                     ...        0 min,  2.561 sec ( 94.483%)
 molecular gradient             ...        0 min,  0.134 sec (  4.953%)
 printout                       ...        0 min,  0.006 sec (  0.222%)

         :::::::::::::::::::::::::::::::::::::::::::::::::::::
         ::                     SUMMARY                     ::
         :::::::::::::::::::::::::::::::::::::::::::::::::::::
         :: total energy            -126.658881046877 Eh    ::
         :: gradient norm              6.726827442663 Eh/a0 ::
         :: HOMO-LUMO gap              1.458711444699 eV    ::
         ::.................................................::
         :: SCC energy              -130.124338610808 Eh    ::
         :: -> isotropic ES            0.109069532705 Eh    ::
         :: -> anisotropic ES          0.003870943913 Eh    ::
         :: -> anisotropic XC          0.063895445649 Eh    ::
         :: -> dispersion             -0.134821471297 Eh    ::
         :: repulsion energy           3.465457563931 Eh    ::
         :: add. restraining           0.000000000000 Eh    ::
         :: total charge               1.000000000000 e     ::
         :::::::::::::::::::::::::::::::::::::::::::::::::::::

      ----------------------------------------------------------- 
     |                   =====================                   |
     |                        A N C O P T                        |
     |                   =====================                   |
     |               Approximate Normal Coordinate               |
     |                Rational Function Optimizer                |
      ----------------------------------------------------------- 
      ----------------------------------------------------------- 
     |                   =====================                   |
     |                        A N C O P T                        |
     |                   =====================                   |
     |               Approximate Normal Coordinate               |
     |                Rational Function Optimizer                |
      ----------------------------------------------------------- 

          ...................................................
          :                      SETUP                      :
          :.................................................:
          :   optimization level           extreme          :
          :   max. optcycles                  1760          :
          :   ANC micro-cycles                  20          :
          :   degrees of freedom               258          :
          :.................................................:
          :   RF solver                   davidson          :
          :   write xtbopt.log                true          :
          :   linear?                        false          :
          :   energy convergence         0.5000000E-07 Eh   :
          :   grad. convergence          0.5000000E-04 Eh/α :
          :   maxmium RF displ.          1.0000000          :
          :   Hlow (freq-cutoff)         0.1000000E-01      :
          :   Hmax (freq-cutoff)         5.0000000          :
          :   S6 in model hess.         20.0000000          :
          ...................................................

generating ANC from exact Hessian ...
Using Lindh-Hessian (1995)
 Shifting diagonal of input Hessian by    9.9187863599389300E-003
 Lowest  eigenvalues of input Hessian
    0.000000    0.000000    0.000000    0.000000    0.000000    0.000000
    0.010000    0.010021    0.010134    0.010212    0.010261    0.010400
    0.010521    0.010684    0.010796    0.011131    0.011195    0.011422
 Highest eigenvalues
    2.052894    2.099881    2.109323    2.173039    2.179347    3.921065


........................................................................
.............................. CYCLE    1 ..............................
........................................................................

 iter      E             dE          RMSdq      gap      omega  full diag
   1   -130.1299762 -0.130130E+03  0.109E-04    1.46       0.0  T
   2   -130.1299762 -0.242579E-09  0.788E-05    1.46     135.2  T
   3   -130.1299762 -0.506617E-09  0.395E-05    1.46     270.0  T
     SCC iter.                  ...        0 min,  0.354 sec
     gradient                   ...        0 min,  0.122 sec
 * total energy  :  -126.6588810 Eh     change       -0.2198789E-08 Eh
   gradient norm :     6.7268257 Eh/α   predicted     0.0000000E+00 (-100.00%)
   displ. norm   :     0.7558722 α      lambda       -0.5073694E+01
   maximum displ.:     0.7412394 α      in ANC's #258, #190, #232, ...

........................................................................
.............................. CYCLE    2 ..............................
........................................................................

 iter      E             dE          RMSdq      gap      omega  full diag
   1   -130.2893751 -0.130289E+03  0.232E+00    1.60       0.0  T
   2   -130.3044365 -0.150614E-01  0.116E+00    1.78       1.0  T
   3   -130.3041776  0.258894E-03  0.486E-01    1.89       1.0  T
   4   -130.3041329  0.447319E-04  0.270E-01    1.86       1.0  T
   5   -130.3069062 -0.277330E-02  0.138E-01    1.89       1.0  T
   6   -130.3071922 -0.286070E-03  0.778E-02    1.89       1.0  T
   7   -130.3072151 -0.228748E-04  0.549E-02    1.89       1.0  T
   8   -130.3072786 -0.634623E-04  0.222E-02    1.89       1.0  T
   9   -130.3072854 -0.683678E-05  0.115E-02    1.89       1.0  T
  10   -130.3072881 -0.265985E-05  0.369E-03    1.89       2.9  T
  11   -130.3072882 -0.998748E-07  0.187E-03    1.89       5.7  T
  12   -130.3072882 -0.383472E-07  0.896E-04    1.89      11.9  T
  13   -130.3072882 -0.284659E-07  0.431E-04    1.89      24.8  T
     SCC iter.                  ...        0 min,  2.055 sec
     gradient                   ...        0 min,  0.118 sec
 * total energy  :  -128.0509878 Eh     change       -0.1392107E+01 Eh
   gradient norm :     0.7438873 Eh/α   predicted    -0.3986283E+01 ( 186.35%)
   displ. norm   :     0.7166329 α      lambda       -0.4941866E+00
   maximum displ.:     0.2244406 α      in ANC's #161, #175, #186, ...

........................................................................
.............................. CYCLE    3 ..............................
........................................................................

 iter      E             dE          RMSdq      gap      omega  full diag
   1   -130.3739404 -0.130374E+03  0.793E-01    2.03       0.0  T
   2   -130.3793797 -0.543937E-02  0.508E-01    2.04       1.0  T
   3   -130.3792718  0.107958E-03  0.275E-01    2.08       1.0  T
   4   -130.3808565 -0.158474E-02  0.174E-01    2.07       1.0  T
   5   -130.3809611 -0.104634E-03  0.131E-01    2.08       1.0  T
   6   -130.3812793 -0.318120E-03  0.780E-02    2.08       1.0  T
   7   -130.3813493 -0.699935E-04  0.457E-02    2.09       1.0  T
   8   -130.3814015 -0.522091E-04  0.176E-02    2.09       1.0  T
   9   -130.3814050 -0.350109E-05  0.816E-03    2.09       1.3  T
  10   -130.3814064 -0.147662E-05  0.351E-03    2.09       3.0  T
  11   -130.3814067 -0.283923E-06  0.147E-03    2.09       7.2  T
  12   -130.3814068 -0.579490E-07  0.694E-04    2.09      15.4  T
  13   -130.3814068 -0.143984E-07  0.307E-04    2.09      34.8  T
     SCC iter.                  ...        0 min,  1.932 sec
     gradient                   ...        0 min,  0.120 sec
 * total energy  :  -128.2459559 Eh     change       -0.1949681E+00 Eh
   gradient norm :     0.2459261 Eh/α   predicted    -0.3739915E+00 (  91.82%)
   displ. norm   :     0.5873224 α      lambda       -0.9284803E-01
   maximum displ.:     0.1134880 α      in ANC's #21, #66, #158, ...

........................................................................
.............................. CYCLE    4 ..............................
........................................................................

 iter      E             dE          RMSdq      gap      omega  full diag
   1   -130.4337238 -0.130434E+03  0.369E-01    2.39       0.0  T
   2   -130.4343772 -0.653454E-03  0.223E-01    2.39       1.0  T
   3   -130.4340813  0.295915E-03  0.953E-02    2.39       1.0  T
   4   -130.4346201 -0.538767E-03  0.367E-02    2.39       1.0  T
   5   -130.4346461 -0.260499E-04  0.166E-02    2.39       1.0  T
   6   -130.4346520 -0.589609E-05  0.746E-03    2.39       1.4  T
   7   -130.4346521 -0.645939E-07  0.367E-03    2.39       2.9  T
   8   -130.4346525 -0.407793E-06  0.236E-03    2.39       4.5  T
   9   -130.4346526 -0.668755E-07  0.159E-03    2.39       6.7  T
  10   -130.4346526 -0.519876E-07  0.772E-04    2.39      13.8  T
  11   -130.4346526 -0.672162E-08  0.491E-04    2.39      21.7  T
     SCC iter.                  ...        0 min,  1.619 sec
     gradient                   ...        0 min,  0.119 sec
 * total energy  :  -128.3190196 Eh     change       -0.7306366E-01 Eh
   gradient norm :     0.1626654 Eh/α   predicted    -0.6243797E-01 ( -14.54%)
   displ. norm   :     0.6435982 α      lambda       -0.6454174E-01
   maximum displ.:     0.1526207 α      in ANC's #158, #26, #21, ...

........................................................................
.............................. CYCLE    5 ..............................
........................................................................

 iter      E             dE          RMSdq      gap      omega  full diag
   1   -130.4609512 -0.130461E+03  0.557E-01    2.60       0.0  T
   2   -130.4616898 -0.738609E-03  0.278E-01    2.60       1.0  T
   3   -130.4614042  0.285599E-03  0.999E-02    2.59       1.0  T
   4   -130.4618411 -0.436882E-03  0.446E-02    2.59       1.0  T
   5   -130.4618552 -0.140955E-04  0.253E-02    2.59       1.0  T
   6   -130.4618784 -0.232446E-04  0.129E-02    2.59       1.0  T
   7   -130.4618780  0.412243E-06  0.620E-03    2.59       1.7  T
   8   -130.4618793 -0.130708E-05  0.422E-03    2.59       2.5  T
   9   -130.4618794 -0.140424E-06  0.217E-03    2.59       4.9  T
  10   -130.4618795 -0.752883E-07  0.136E-03    2.59       7.8  T
  11   -130.4618795 -0.203227E-07  0.757E-04    2.59      14.1  T
  12   -130.4618796 -0.121936E-07  0.397E-04    2.59      26.9  T
     SCC iter.                  ...        0 min,  1.829 sec
     gradient                   ...        0 min,  0.119 sec
 * total energy  :  -128.3671904 Eh     change       -0.4817080E-01 Eh
   gradient norm :     0.0907596 Eh/α   predicted    -0.4563816E-01 (  -5.26%)
   displ. norm   :     0.7091140 α      lambda       -0.3450969E-01
   maximum displ.:     0.2165159 α      in ANC's #26, #6, #21, ...

........................................................................
.............................. CYCLE    6 ..............................
........................................................................

 iter      E             dE          RMSdq      gap      omega  full diag
   1   -130.4566194 -0.130457E+03  0.470E-01    2.52       0.0  T
   2   -130.4569254 -0.306016E-03  0.226E-01    2.52       1.0  T
   3   -130.4568292  0.961770E-04  0.663E-02    2.51       1.0  T
   4   -130.4569517 -0.122418E-03  0.362E-02    2.51       1.0  T
   5   -130.4569917 -0.400296E-04  0.163E-02    2.51       1.0  T
   6   -130.4569971 -0.537197E-05  0.903E-03    2.51       1.2  T
   7   -130.4569972 -0.167759E-06  0.511E-03    2.51       2.1  T
   8   -130.4569978 -0.619018E-06  0.337E-03    2.51       3.2  T
   9   -130.4569980 -0.112363E-06  0.167E-03    2.51       6.4  T
  10   -130.4569980 -0.240312E-07  0.103E-03    2.51      10.3  T
  11   -130.4569980 -0.142674E-07  0.522E-04    2.51      20.4  T
  12   -130.4569980 -0.486392E-08  0.261E-04    2.51      40.8  T
     SCC iter.                  ...        0 min,  2.000 sec
     gradient                   ...        0 min,  0.119 sec
 * total energy  :  -128.3937514 Eh     change       -0.2656104E-01 Eh
   gradient norm :     0.0567851 Eh/α   predicted    -0.2593134E-01 (  -2.37%)
   displ. norm   :     0.6875209 α      lambda       -0.1986757E-01
   maximum displ.:     0.2429453 α      in ANC's #18, #26, #21, ...

........................................................................
.............................. CYCLE    7 ..............................
........................................................................

 iter      E             dE          RMSdq      gap      omega  full diag
   1   -130.4461720 -0.130446E+03  0.368E-01    2.36       0.0  T
   2   -130.4463978 -0.225820E-03  0.175E-01    2.36       1.0  T
   3   -130.4463618  0.359886E-04  0.582E-02    2.35       1.0  T
   4   -130.4464023 -0.404765E-04  0.297E-02    2.35       1.0  T
   5   -130.4464354 -0.330817E-04  0.125E-02    2.35       1.0  T
   6   -130.4464398 -0.447976E-05  0.606E-03    2.35       1.8  T
   7   -130.4464409 -0.105920E-05  0.342E-03    2.35       3.1  T
   8   -130.4464411 -0.153338E-06  0.197E-03    2.35       5.4  T
   9   -130.4464411 -0.424680E-07  0.116E-03    2.35       9.2  T
  10   -130.4464411 -0.123955E-07  0.706E-04    2.35      15.1  T
  11   -130.4464411 -0.628964E-08  0.335E-04    2.35      31.8  T
     SCC iter.                  ...        0 min,  1.577 sec
     gradient                   ...        0 min,  0.123 sec
 * total energy  :  -128.4093090 Eh     change       -0.1555756E-01 Eh
   gradient norm :     0.0327399 Eh/α   predicted    -0.1462938E-01 (  -5.97%)
   displ. norm   :     0.7258626 α      lambda       -0.1337082E-01
   maximum displ.:     0.2914599 α      in ANC's #18, #26, #4, ...

........................................................................
.............................. CYCLE    8 ..............................
........................................................................

 iter      E             dE          RMSdq      gap      omega  full diag
   1   -130.4476191 -0.130448E+03  0.246E-01    2.19       0.0  T
   2   -130.4477038 -0.846552E-04  0.125E-01    2.18       1.0  T
   3   -130.4476915  0.123036E-04  0.372E-02    2.17       1.0  T
   4   -130.4477188 -0.273299E-04  0.186E-02    2.17       1.0  T
   5   -130.4477197 -0.915587E-06  0.922E-03    2.17       1.2  T
   6   -130.4477236 -0.385143E-05  0.440E-03    2.17       2.4  T
   7   -130.4477238 -0.207855E-06  0.288E-03    2.17       3.7  T
   8   -130.4477238 -0.338508E-08  0.185E-03    2.17       5.7  T
   9   -130.4477239 -0.911178E-07  0.101E-03    2.17      10.5  T
  10   -130.4477239 -0.698364E-08  0.520E-04    2.17      20.5  T
  11   -130.4477239 -0.476604E-08  0.235E-04    2.17      45.3  T
     SCC iter.                  ...        0 min,  1.707 sec
     gradient                   ...        0 min,  0.119 sec
 * total energy  :  -128.4200637 Eh     change       -0.1075473E-01 Eh
   gradient norm :     0.0220869 Eh/α   predicted    -0.1020780E-01 (  -5.09%)
   displ. norm   :     0.7540913 α      lambda       -0.9774080E-02
   maximum displ.:     0.3629761 α      in ANC's #18, #26, #4, ...

........................................................................
.............................. CYCLE    9 ..............................
........................................................................

 iter      E             dE          RMSdq      gap      omega  full diag
   1   -130.4532134 -0.130453E+03  0.221E-01    2.04       0.0  T
   2   -130.4533066 -0.932010E-04  0.112E-01    2.02       1.0  T
   3   -130.4532986  0.802494E-05  0.387E-02    2.02       1.0  T
   4   -130.4533165 -0.179554E-04  0.163E-02    2.02       1.0  T
   5   -130.4533227 -0.617317E-05  0.828E-03    2.02       1.3  T
   6   -130.4533242 -0.149451E-05  0.408E-03    2.02       2.6  T
   7   -130.4533245 -0.297394E-06  0.251E-03    2.02       4.2  T
   8   -130.4533245 -0.482581E-08  0.170E-03    2.02       6.3  T
   9   -130.4533246 -0.679771E-07  0.804E-04    2.02      13.3  T
  10   -130.4533246 -0.619991E-08  0.439E-04    2.02      24.3  T
     SCC iter.                  ...        0 min,  1.597 sec
     gradient                   ...        0 min,  0.119 sec
 * total energy  :  -128.4280384 Eh     change       -0.7974644E-02 Eh
   gradient norm :     0.0229102 Eh/α   predicted    -0.7666077E-02 (  -3.87%)
   displ. norm   :     0.7521298 α      lambda       -0.7391629E-02
   maximum displ.:     0.3642813 α      in ANC's #18, #4, #26, ...

........................................................................
.............................. CYCLE   10 ..............................
........................................................................

 iter      E             dE          RMSdq      gap      omega  full diag
   1   -130.4656295 -0.130466E+03  0.152E-01    1.90       0.0  T
   2   -130.4656845 -0.549423E-04  0.868E-02    1.89       1.0  T
   3   -130.4656734  0.111042E-04  0.304E-02    1.89       1.0  T
   4   -130.4656927 -0.193222E-04  0.112E-02    1.89       1.0  T
   5   -130.4656947 -0.200077E-05  0.588E-03    1.89       1.8  T
   6   -130.4656959 -0.117151E-05  0.257E-03    1.89       4.1  T
   7   -130.4656959 -0.509055E-07  0.177E-03    1.89       6.0  T
   8   -130.4656959 -0.255433E-07  0.106E-03    1.89      10.1  T
   9   -130.4656960 -0.285134E-07  0.626E-04    1.89      17.0  T
  10   -130.4656960 -0.282691E-08  0.306E-04    1.89      34.9  T
     SCC iter.                  ...        0 min,  1.507 sec
     gradient                   ...        0 min,  0.119 sec
 * total energy  :  -128.4341634 Eh     change       -0.6124982E-02 Eh
   gradient norm :     0.0233420 Eh/α   predicted    -0.5786537E-02 (  -5.53%)
   displ. norm   :     0.7770474 α      lambda       -0.5918703E-02
   maximum displ.:     0.4035708 α      in ANC's #18, #4, #16, ...

........................................................................
.............................. CYCLE   11 ..............................
........................................................................

 iter      E             dE          RMSdq      gap      omega  full diag
   1   -130.4752721 -0.130475E+03  0.139E-01    1.80       0.0  T
   2   -130.4752985 -0.263867E-04  0.773E-02    1.80       1.0  T
   3   -130.4752950  0.346721E-05  0.221E-02    1.80       1.0  T
   4   -130.4753011 -0.601685E-05  0.778E-03    1.80       1.4  T
   5   -130.4753023 -0.123026E-05  0.408E-03    1.80       2.6  T
   6   -130.4753030 -0.737648E-06  0.152E-03    1.80       7.0  T
   7   -130.4753031 -0.663990E-07  0.875E-04    1.80      12.2  T
   8   -130.4753031 -0.995630E-08  0.488E-04    1.80      21.8  T
     SCC iter.                  ...        0 min,  0.983 sec
     gradient                   ...        0 min,  0.120 sec
 * total energy  :  -128.4393046 Eh     change       -0.5141269E-02 Eh
   gradient norm :     0.0238134 Eh/α   predicted    -0.4746221E-02 (  -7.68%)
   displ. norm   :     0.8068945 α      lambda       -0.5374241E-02
   maximum displ.:     0.4033923 α      in ANC's #18, #4, #16, ...

........................................................................
.............................. CYCLE   12 ..............................
........................................................................

 iter      E             dE          RMSdq      gap      omega  full diag
   1   -130.4851283 -0.130485E+03  0.187E-01    1.74       0.0  T
   2   -130.4851534 -0.251661E-04  0.963E-02    1.74       1.0  T
   3   -130.4851445  0.898417E-05  0.221E-02    1.74       1.0  T
   4   -130.4851530 -0.853426E-05  0.109E-02    1.74       1.0  T
   5   -130.4851588 -0.582940E-05  0.450E-03    1.74       2.4  T
   6   -130.4851595 -0.708728E-06  0.165E-03    1.74       6.5  T
   7   -130.4851596 -0.655777E-07  0.929E-04    1.74      11.5  T
   8   -130.4851596 -0.192828E-07  0.410E-04    1.74      26.0  T
     SCC iter.                  ...        0 min,  1.036 sec
     gradient                   ...        0 min,  0.120 sec
 * total energy  :  -128.4441311 Eh     change       -0.4826431E-02 Eh
   gradient norm :     0.0239835 Eh/α   predicted    -0.4436655E-02 (  -8.08%)
   displ. norm   :     0.8377645 α      lambda       -0.5287981E-02
   maximum displ.:     0.4003050 α      in ANC's #18, #4, #16, ...

........................................................................
.............................. CYCLE   13 ..............................
........................................................................

 iter      E             dE          RMSdq      gap      omega  full diag
   1   -130.4931109 -0.130493E+03  0.299E-01    1.71       0.0  T
   2   -130.4931506 -0.396778E-04  0.146E-01    1.72       1.0  T
   3   -130.4931339  0.166536E-04  0.262E-02    1.72       1.0  T
   4   -130.4931521 -0.181840E-04  0.142E-02    1.73       1.0  T
   5   -130.4931615 -0.937434E-05  0.545E-03    1.72       2.0  T
   6   -130.4931622 -0.732069E-06  0.231E-03    1.73       4.6  T
   7   -130.4931624 -0.156468E-06  0.125E-03    1.72       8.5  T
   8   -130.4931624 -0.275089E-07  0.484E-04    1.73      22.0  T
   9   -130.4931624 -0.160438E-08  0.270E-04    1.73      39.5  T
     SCC iter.                  ...        0 min,  1.282 sec
     gradient                   ...        0 min,  0.120 sec
 * total energy  :  -128.4490438 Eh     change       -0.4912756E-02 Eh
   gradient norm :     0.0265077 Eh/α   predicted    -0.4499680E-02 (  -8.41%)
   displ. norm   :     0.8686481 α      lambda       -0.5627635E-02
   maximum displ.:     0.3714318 α      in ANC's #18, #4, #16, ...

........................................................................
.............................. CYCLE   14 ..............................
........................................................................

 iter      E             dE          RMSdq      gap      omega  full diag
   1   -130.5000980 -0.130500E+03  0.475E-01    1.76       0.0  T
   2   -130.5001811 -0.830495E-04  0.227E-01    1.77       1.0  T
   3   -130.5001424  0.386697E-04  0.353E-02    1.77       1.0  T
   4   -130.5001917 -0.492844E-04  0.189E-02    1.78       1.0  T
   5   -130.5002053 -0.135624E-04  0.766E-03    1.77       1.4  T
   6   -130.5002071 -0.187011E-05  0.317E-03    1.77       3.4  T
   7   -130.5002073 -0.203359E-06  0.169E-03    1.77       6.3  T
   8   -130.5002074 -0.536880E-07  0.691E-04    1.77      15.4  T
   9   -130.5002074 -0.742230E-08  0.342E-04    1.77      31.2  T
     SCC iter.                  ...        0 min,  1.393 sec
     gradient                   ...        0 min,  0.123 sec
 * total energy  :  -128.4543860 Eh     change       -0.5342209E-02 Eh
   gradient norm :     0.0301578 Eh/α   predicted    -0.4937002E-02 (  -7.59%)
   displ. norm   :     0.8801281 α      lambda       -0.6129886E-02
   maximum displ.:     0.3279588 α      in ANC's #4, #18, #16, ...

........................................................................
.............................. CYCLE   15 ..............................
........................................................................

 iter      E             dE          RMSdq      gap      omega  full diag
   1   -130.5056520 -0.130506E+03  0.698E-01    1.87       0.0  T
   2   -130.5058240 -0.172070E-03  0.324E-01    1.89       1.0  T
   3   -130.5057661  0.579837E-04  0.487E-02    1.90       1.0  T
   4   -130.5058406 -0.745853E-04  0.273E-02    1.90       1.0  T
   5   -130.5058679 -0.272396E-04  0.113E-02    1.90       1.0  T
   6   -130.5058724 -0.453610E-05  0.462E-03    1.90       2.3  T
   7   -130.5058726 -0.215540E-06  0.268E-03    1.90       4.0  T
   8   -130.5058728 -0.123193E-06  0.111E-03    1.90       9.6  T
   9   -130.5058728 -0.244730E-07  0.550E-04    1.90      19.4  T
  10   -130.5058728 -0.107951E-08  0.199E-04    1.90      53.6  T
     SCC iter.                  ...        0 min,  1.383 sec
     gradient                   ...        0 min,  0.118 sec
 * total energy  :  -128.4599379 Eh     change       -0.5551857E-02 Eh
   gradient norm :     0.0329421 Eh/α   predicted    -0.5439129E-02 (  -2.03%)
   displ. norm   :     0.8131883 α      lambda       -0.5399724E-02
   maximum displ.:     0.2980084 α      in ANC's #4, #18, #16, ...

........................................................................
.............................. CYCLE   16 ..............................
........................................................................

 iter      E             dE          RMSdq      gap      omega  full diag
   1   -130.5054158 -0.130505E+03  0.683E-01    1.97       0.0  T
   2   -130.5056096 -0.193790E-03  0.305E-01    1.98       1.0  T
   3   -130.5055608  0.488413E-04  0.545E-02    1.98       1.0  T
   4   -130.5056199 -0.591712E-04  0.314E-02    1.98       1.0  T
   5   -130.5056518 -0.318792E-04  0.129E-02    1.98       1.0  T
   6   -130.5056589 -0.710630E-05  0.536E-03    1.98       2.0  T
   7   -130.5056590 -0.823397E-07  0.330E-03    1.98       3.2  T
   8   -130.5056592 -0.193003E-06  0.130E-03    1.98       8.2  T
   9   -130.5056592 -0.288128E-07  0.696E-04    1.98      15.3  T
  10   -130.5056592 -0.305599E-08  0.309E-04    1.98      34.6  T
     SCC iter.                  ...        0 min,  1.501 sec
     gradient                   ...        0 min,  0.122 sec
 * total energy  :  -128.4642752 Eh     change       -0.4337264E-02 Eh
   gradient norm :     0.0338583 Eh/α   predicted    -0.4485234E-02 (   3.41%)
   displ. norm   :     0.6572909 α      lambda       -0.3875423E-02
   maximum displ.:     0.2705836 α      in ANC's #4, #16, #5, ...

........................................................................
.............................. CYCLE   17 ..............................
........................................................................

 iter      E             dE          RMSdq      gap      omega  full diag
   1   -130.5017411 -0.130502E+03  0.378E-01    1.93       0.0  T
   2   -130.5018140 -0.728961E-04  0.168E-01    1.94       1.0  T
   3   -130.5017966  0.174241E-04  0.332E-02    1.94       1.0  T
   4   -130.5018149 -0.183309E-04  0.204E-02    1.94       1.0  T
   5   -130.5018300 -0.150593E-04  0.743E-03    1.94       1.4  T
   6   -130.5018325 -0.251943E-05  0.315E-03    1.94       3.4  T
   7   -130.5018325 -0.253098E-07  0.199E-03    1.94       5.4  T
   8   -130.5018326 -0.564549E-07  0.926E-04    1.94      11.5  T
   9   -130.5018326 -0.102843E-07  0.543E-04    1.94      19.6  T
     SCC iter.                  ...        0 min,  1.138 sec
     gradient                   ...        0 min,  0.122 sec
 * total energy  :  -128.4673650 Eh     change       -0.3089807E-02 Eh
   gradient norm :     0.0332208 Eh/α   predicted    -0.2774865E-02 ( -10.19%)
   displ. norm   :     0.6011548 α      lambda       -0.4297574E-02
   maximum displ.:     0.2307787 α      in ANC's #4, #9, #5, ...

........................................................................
.............................. CYCLE   18 ..............................
........................................................................

 iter      E             dE          RMSdq      gap      omega  full diag
   1   -130.5111043 -0.130511E+03  0.280E-01    1.90       0.0  T
   2   -130.5111766 -0.723134E-04  0.129E-01    1.90       1.0  T
   3   -130.5111623  0.143097E-04  0.285E-02    1.90       1.0  T
   4   -130.5111796 -0.173396E-04  0.180E-02    1.89       1.0  T
   5   -130.5111902 -0.105466E-04  0.618E-03    1.89       1.7  T
   6   -130.5111917 -0.152227E-05  0.233E-03    1.89       4.6  T
   7   -130.5111918 -0.131094E-06  0.121E-03    1.89       8.8  T
   8   -130.5111918 -0.942219E-08  0.663E-04    1.89      16.1  T
   9   -130.5111918 -0.945903E-08  0.413E-04    1.89      25.8  T
     SCC iter.                  ...        0 min,  1.327 sec
     gradient                   ...        0 min,  0.121 sec
 * total energy  :  -128.4702842 Eh     change       -0.2919260E-02 Eh
   gradient norm :     0.0305069 Eh/α   predicted    -0.2925337E-02 (   0.21%)
   displ. norm   :     0.5857783 α      lambda       -0.3725709E-02
   maximum displ.:     0.2189267 α      in ANC's #9, #16, #4, ...

........................................................................
.............................. CYCLE   19 ..............................
........................................................................

 iter      E             dE          RMSdq      gap      omega  full diag
   1   -130.5061296 -0.130506E+03  0.162E-01    1.86       0.0  T
   2   -130.5061737 -0.441322E-04  0.838E-02    1.85       1.0  T
   3   -130.5061672  0.651268E-05  0.242E-02    1.84       1.0  T
   4   -130.5061752 -0.802411E-05  0.127E-02    1.84       1.0  T
   5   -130.5061797 -0.450892E-05  0.638E-03    1.84       1.7  T
   6   -130.5061812 -0.143814E-05  0.239E-03    1.84       4.5  T
   7   -130.5061813 -0.125797E-06  0.132E-03    1.84       8.1  T
   8   -130.5061813 -0.124393E-07  0.557E-04    1.84      19.1  T
   9   -130.5061813 -0.724944E-08  0.317E-04    1.84      33.7  T
     SCC iter.                  ...        0 min,  1.184 sec
     gradient                   ...        0 min,  0.122 sec
 * total energy  :  -128.4725237 Eh     change       -0.2239483E-02 Eh
   gradient norm :     0.0270336 Eh/α   predicted    -0.2502071E-02 (  11.73%)
   displ. norm   :     0.5610232 α      lambda       -0.2392102E-02
   maximum displ.:     0.2117597 α      in ANC's #9, #4, #5, ...

........................................................................
.............................. CYCLE   20 ..............................
........................................................................

 iter      E             dE          RMSdq      gap      omega  full diag
   1   -130.5124129 -0.130512E+03  0.210E-01    1.83       0.0  T
   2   -130.5124585 -0.456979E-04  0.922E-02    1.84       1.0  T
   3   -130.5124443  0.142014E-04  0.306E-02    1.83       1.0  T
   4   -130.5124641 -0.197045E-04  0.134E-02    1.84       1.0  T
   5   -130.5124694 -0.536992E-05  0.599E-03    1.84       1.8  T
   6   -130.5124713 -0.185592E-05  0.226E-03    1.84       4.7  T
   7   -130.5124713 -0.521396E-07  0.133E-03    1.84       8.0  T
   8   -130.5124713 -0.676371E-08  0.681E-04    1.84      15.6  T
   9   -130.5124714 -0.143155E-07  0.334E-04    1.84      32.0  T
     SCC iter.                  ...        0 min,  1.328 sec
     gradient                   ...        0 min,  0.120 sec
 * total energy  :  -128.4743645 Eh     change       -0.1840767E-02 Eh
   gradient norm :     0.0240653 Eh/α   predicted    -0.1572505E-02 ( -14.57%)
   displ. norm   :     0.5673439 α      lambda       -0.2670040E-02
   maximum displ.:     0.2636524 α      in ANC's #9, #5, #4, ...
 * RMSD in coord.:     1.0471670 α      energy gain  -0.1815483E+01 Eh

generating ANC from exact Hessian ...
Using Lindh-Hessian (1995)
 Shifting diagonal of input Hessian by    1.0818924869503227E-002
 Lowest  eigenvalues of input Hessian
    0.010000    0.010751    0.000000    0.000000    0.000000    0.000000
    0.000000    0.000000    0.010931    0.011053    0.011138    0.011207
    0.011247    0.011328    0.011576    0.011619    0.011704    0.012054
 Highest eigenvalues
    2.015120    2.019762    2.068414    2.082720    2.109795    2.278824


........................................................................
.............................. CYCLE   21 ..............................
........................................................................

 iter      E             dE          RMSdq      gap      omega  full diag
   1   -130.5181755 -0.130518E+03  0.138E-01    1.90       0.0  T
   2   -130.5182020 -0.265245E-04  0.703E-02    1.88       1.0  T
   3   -130.5181998  0.214152E-05  0.198E-02    1.88       1.0  T
   4   -130.5182042 -0.438747E-05  0.865E-03    1.88       1.2  T
   5   -130.5182047 -0.467325E-06  0.495E-03    1.88       2.2  T
   6   -130.5182060 -0.132454E-05  0.180E-03    1.88       5.9  T
   7   -130.5182061 -0.465843E-07  0.972E-04    1.88      11.0  T
   8   -130.5182061 -0.794265E-08  0.604E-04    1.88      17.6  T
     SCC iter.                  ...        0 min,  0.996 sec
     gradient                   ...        0 min,  0.128 sec
 * total energy  :  -128.4763852 Eh     change       -0.2020726E-02 Eh
   gradient norm :     0.0214925 Eh/α   predicted     0.0000000E+00 (-100.00%)
   displ. norm   :     0.4419022 α      lambda       -0.4587470E-02
   maximum displ.:     0.2589603 α      in ANC's #11, #1, #5, ...

........................................................................
.............................. CYCLE   22 ..............................
........................................................................

 iter      E             dE          RMSdq      gap      omega  full diag
   1   -130.5203940 -0.130520E+03  0.329E-01    2.05       0.0  T
   2   -130.5205388 -0.144759E-03  0.149E-01    2.04       1.0  T
   3   -130.5205379  0.914634E-06  0.449E-02    2.03       1.0  T
   4   -130.5205553 -0.174089E-04  0.281E-02    2.04       1.0  T
   5   -130.5205666 -0.112581E-04  0.151E-02    2.03       1.0  T
   6   -130.5205722 -0.568987E-05  0.667E-03    2.04       1.6  T
   7   -130.5205724 -0.178936E-06  0.395E-03    2.04       2.7  T
   8   -130.5205726 -0.193730E-06  0.194E-03    2.04       5.5  T
   9   -130.5205727 -0.306447E-07  0.118E-03    2.04       9.0  T
  10   -130.5205727 -0.232661E-07  0.585E-04    2.04      18.2  T
  11   -130.5205727 -0.214308E-08  0.314E-04    2.04      34.0  T
     SCC iter.                  ...        0 min,  1.860 sec
     gradient                   ...        0 min,  0.119 sec
 * total energy  :  -128.4794800 Eh     change       -0.3094809E-02 Eh
   gradient norm :     0.0141424 Eh/α   predicted    -0.2741667E-02 ( -11.41%)
   displ. norm   :     0.5442703 α      lambda       -0.3775852E-02
   maximum displ.:     0.3369656 α      in ANC's #11, #5, #9, ...

........................................................................
.............................. CYCLE   23 ..............................
........................................................................

 iter      E             dE          RMSdq      gap      omega  full diag
   1   -130.5240160 -0.130524E+03  0.209E-01    2.27       0.0  T
   2   -130.5240855 -0.695526E-04  0.109E-01    2.25       1.0  T
   3   -130.5240777  0.779976E-05  0.251E-02    2.23       1.0  T
   4   -130.5240954 -0.177181E-04  0.140E-02    2.23       1.0  T
   5   -130.5240984 -0.299852E-05  0.582E-03    2.23       1.8  T
   6   -130.5240998 -0.141179E-05  0.276E-03    2.23       3.9  T
   7   -130.5241000 -0.122322E-06  0.167E-03    2.23       6.4  T
   8   -130.5241000 -0.196338E-07  0.106E-03    2.23      10.1  T
   9   -130.5241000 -0.158014E-07  0.622E-04    2.23      17.1  T
  10   -130.5241000 -0.335925E-08  0.260E-04    2.23      41.0  T
     SCC iter.                  ...        0 min,  1.599 sec
     gradient                   ...        0 min,  0.121 sec
 * total energy  :  -128.4815893 Eh     change       -0.2109328E-02 Eh
   gradient norm :     0.0172401 Eh/α   predicted    -0.2447188E-02 (  16.02%)
   displ. norm   :     0.5233417 α      lambda       -0.2667338E-02
   maximum displ.:     0.3420532 α      in ANC's #11, #5, #9, ...

........................................................................
.............................. CYCLE   24 ..............................
........................................................................

 iter      E             dE          RMSdq      gap      omega  full diag
   1   -130.5235535 -0.130524E+03  0.237E-01    2.35       0.0  T
   2   -130.5237063 -0.152768E-03  0.111E-01    2.36       1.0  T
   3   -130.5237035  0.272299E-05  0.384E-02    2.36       1.0  T
   4   -130.5237070 -0.343684E-05  0.209E-02    2.36       1.0  T
   5   -130.5237266 -0.196407E-04  0.814E-03    2.36       1.3  T
   6   -130.5237276 -0.954676E-06  0.389E-03    2.36       2.7  T
   7   -130.5237278 -0.241508E-06  0.219E-03    2.36       4.9  T
   8   -130.5237278  0.157447E-07  0.131E-03    2.36       8.1  T
   9   -130.5237278 -0.464968E-07  0.681E-04    2.36      15.7  T
  10   -130.5237279 -0.938979E-08  0.344E-04    2.36      31.0  T
     SCC iter.                  ...        0 min,  1.516 sec
     gradient                   ...        0 min,  0.125 sec
 * total energy  :  -128.4834816 Eh     change       -0.1892256E-02 Eh
   gradient norm :     0.0112518 Eh/α   predicted    -0.1698952E-02 ( -10.22%)
   displ. norm   :     0.5258191 α      lambda       -0.1925118E-02
   maximum displ.:     0.3206622 α      in ANC's #11, #5, #9, ...

........................................................................
.............................. CYCLE   25 ..............................
........................................................................

 iter      E             dE          RMSdq      gap      omega  full diag
   1   -130.5261860 -0.130526E+03  0.144E-01    2.48       0.0  T
   2   -130.5262350 -0.490182E-04  0.730E-02    2.49       1.0  T
   3   -130.5262331  0.191373E-05  0.254E-02    2.49       1.0  T
   4   -130.5262365 -0.342010E-05  0.114E-02    2.49       1.0  T
   5   -130.5262410 -0.447913E-05  0.533E-03    2.49       2.0  T
   6   -130.5262419 -0.878358E-06  0.263E-03    2.49       4.1  T
   7   -130.5262420 -0.120518E-06  0.151E-03    2.49       7.1  T
   8   -130.5262420  0.334566E-08  0.969E-04    2.49      11.0  T
   9   -130.5262420 -0.220062E-07  0.430E-04    2.49      24.8  T
     SCC iter.                  ...        0 min,  1.177 sec
     gradient                   ...        0 min,  0.119 sec
 * total energy  :  -128.4851427 Eh     change       -0.1661105E-02 Eh
   gradient norm :     0.0111119 Eh/α   predicted    -0.1228693E-02 ( -26.03%)
   displ. norm   :     0.6857898 α      lambda       -0.2345747E-02
   maximum displ.:     0.3972765 α      in ANC's #11, #5, #9, ...

........................................................................
.............................. CYCLE   26 ..............................
........................................................................

 iter      E             dE          RMSdq      gap      omega  full diag
   1   -130.5301197 -0.130530E+03  0.157E-01    2.59       0.0  T
   2   -130.5301533 -0.336133E-04  0.830E-02    2.59       1.0  T
   3   -130.5301479  0.538060E-05  0.242E-02    2.60       1.0  T
   4   -130.5301552 -0.725988E-05  0.103E-02    2.59       1.0  T
   5   -130.5301582 -0.303306E-05  0.472E-03    2.59       2.3  T
   6   -130.5301592 -0.947114E-06  0.198E-03    2.59       5.4  T
   7   -130.5301592 -0.764799E-07  0.117E-03    2.59       9.1  T
   8   -130.5301592 -0.498503E-08  0.677E-04    2.59      15.7  T
   9   -130.5301592 -0.115980E-07  0.244E-04    2.59      43.6  T
     SCC iter.                  ...        0 min,  1.325 sec
     gradient                   ...        0 min,  0.120 sec
 * total energy  :  -128.4870472 Eh     change       -0.1904533E-02 Eh
   gradient norm :     0.0102694 Eh/α   predicted    -0.1724485E-02 (  -9.45%)
   displ. norm   :     0.7148585 α      lambda       -0.1735616E-02
   maximum displ.:     0.4065727 α      in ANC's #11, #5, #9, ...

........................................................................
.............................. CYCLE   27 ..............................
........................................................................

 iter      E             dE          RMSdq      gap      omega  full diag
   1   -130.5308061 -0.130531E+03  0.172E-01    2.70       0.0  T
   2   -130.5308310 -0.248750E-04  0.886E-02    2.70       1.0  T
   3   -130.5308283  0.264038E-05  0.204E-02    2.70       1.0  T
   4   -130.5308313 -0.299935E-05  0.103E-02    2.70       1.0  T
   5   -130.5308349 -0.352930E-05  0.421E-03    2.70       2.5  T
   6   -130.5308357 -0.838784E-06  0.137E-03    2.70       7.8  T
   7   -130.5308357 -0.369131E-07  0.869E-04    2.70      12.3  T
   8   -130.5308358 -0.391890E-08  0.549E-04    2.70      19.4  T
     SCC iter.                  ...        0 min,  1.158 sec
     gradient                   ...        0 min,  0.121 sec
 * total energy  :  -128.4884964 Eh     change       -0.1449198E-02 Eh
   gradient norm :     0.0100158 Eh/α   predicted    -0.1311277E-02 (  -9.52%)
   displ. norm   :     0.6908513 α      lambda       -0.1471445E-02
   maximum displ.:     0.3504328 α      in ANC's #11, #5, #8, ...

........................................................................
.............................. CYCLE   28 ..............................
........................................................................

 iter      E             dE          RMSdq      gap      omega  full diag
   1   -130.5341355 -0.130534E+03  0.163E-01    2.77       0.0  T
   2   -130.5341500 -0.144890E-04  0.850E-02    2.78       1.0  T
   3   -130.5341489  0.116241E-05  0.164E-02    2.78       1.0  T
   4   -130.5341496 -0.745862E-06  0.851E-03    2.78       1.3  T
   5   -130.5341529 -0.330647E-05  0.285E-03    2.78       3.7  T
   6   -130.5341533 -0.391443E-06  0.675E-04    2.78      15.8  T
   7   -130.5341533 -0.183461E-07  0.371E-04    2.78      28.7  T
     SCC iter.                  ...        0 min,  0.734 sec
     gradient                   ...        0 min,  0.123 sec
 * total energy  :  -128.4897313 Eh     change       -0.1234870E-02 Eh
   gradient norm :     0.0078959 Eh/α   predicted    -0.1086864E-02 ( -11.99%)
   displ. norm   :     0.7088262 α      lambda       -0.1312353E-02
   maximum displ.:     0.3262267 α      in ANC's #5, #11, #7, ...

........................................................................
.............................. CYCLE   29 ..............................
........................................................................

 iter      E             dE          RMSdq      gap      omega  full diag
   1   -130.5351147 -0.130535E+03  0.172E-01    2.83       0.0  T
   2   -130.5351290 -0.142725E-04  0.913E-02    2.84       1.0  T
   3   -130.5351270  0.199452E-05  0.171E-02    2.83       1.0  T
   4   -130.5351277 -0.685872E-06  0.907E-03    2.83       1.2  T
   5   -130.5351322 -0.450128E-05  0.276E-03    2.83       3.9  T
   6   -130.5351325 -0.271594E-06  0.827E-04    2.83      12.9  T
   7   -130.5351325 -0.239985E-07  0.518E-04    2.83      20.6  T
     SCC iter.                  ...        0 min,  0.886 sec
     gradient                   ...        0 min,  0.121 sec
 * total energy  :  -128.4908599 Eh     change       -0.1128588E-02 Eh
   gradient norm :     0.0074342 Eh/α   predicted    -0.9858626E-03 ( -12.65%)
   displ. norm   :     0.7219079 α      lambda       -0.1301684E-02
   maximum displ.:     0.3521036 α      in ANC's #7, #5, #8, ...

........................................................................
.............................. CYCLE   30 ..............................
........................................................................

 iter      E             dE          RMSdq      gap      omega  full diag
   1   -130.5394174 -0.130539E+03  0.162E-01    2.83       0.0  T
   2   -130.5394256 -0.827808E-05  0.907E-02    2.84       1.0  T
   3   -130.5394203  0.534525E-05  0.148E-02    2.83       1.0  T
   4   -130.5394253 -0.498638E-05  0.757E-03    2.83       1.4  T
   5   -130.5394283 -0.304258E-05  0.209E-03    2.83       5.1  T
   6   -130.5394285 -0.143786E-06  0.861E-04    2.83      12.4  T
   7   -130.5394285 -0.145414E-07  0.526E-04    2.83      20.3  T
     SCC iter.                  ...        0 min,  1.011 sec
     gradient                   ...        0 min,  0.119 sec
 * total energy  :  -128.4919516 Eh     change       -0.1091707E-02 Eh
   gradient norm :     0.0089842 Eh/α   predicted    -0.9900341E-03 (  -9.31%)
   displ. norm   :     0.7527244 α      lambda       -0.1182015E-02
   maximum displ.:     0.3890553 α      in ANC's #7, #5, #8, ...

........................................................................
.............................. CYCLE   31 ..............................
........................................................................

 iter      E             dE          RMSdq      gap      omega  full diag
   1   -130.5339194 -0.130534E+03  0.172E-01    2.83       0.0  T
   2   -130.5339284 -0.902135E-05  0.965E-02    2.83       1.0  T
   3   -130.5339260  0.237525E-05  0.142E-02    2.83       1.0  T
   4   -130.5339271 -0.110680E-05  0.719E-03    2.83       1.5  T
   5   -130.5339307 -0.356796E-05  0.228E-03    2.83       4.7  T
   6   -130.5339308 -0.163832E-06  0.864E-04    2.83      12.3  T
   7   -130.5339309 -0.326087E-07  0.541E-04    2.83      19.7  T
     SCC iter.                  ...        0 min,  0.847 sec
     gradient                   ...        0 min,  0.119 sec
 * total energy  :  -128.4929076 Eh     change       -0.9560569E-03 Eh
   gradient norm :     0.0106337 Eh/α   predicted    -0.9258734E-03 (  -3.16%)
   displ. norm   :     0.6903287 α      lambda       -0.1169256E-02
   maximum displ.:     0.3855838 α      in ANC's #7, #10, #5, ...

........................................................................
.............................. CYCLE   32 ..............................
........................................................................

 iter      E             dE          RMSdq      gap      omega  full diag
   1   -130.5405416 -0.130541E+03  0.144E-01    2.82       0.0  T
   2   -130.5405474 -0.579993E-05  0.838E-02    2.82       1.0  T
   3   -130.5405306  0.167925E-04  0.155E-02    2.82       1.0  T
   4   -130.5405497 -0.190695E-04  0.465E-03    2.82       2.3  T
   5   -130.5405506 -0.941226E-06  0.163E-03    2.82       6.6  T
   6   -130.5405507 -0.600390E-07  0.728E-04    2.82      14.7  T
   7   -130.5405507 -0.307252E-07  0.297E-04    2.82      35.8  T
     SCC iter.                  ...        0 min,  0.922 sec
     gradient                   ...        0 min,  0.122 sec
 * total energy  :  -128.4937891 Eh     change       -0.8814836E-03 Eh
   gradient norm :     0.0100694 Eh/α   predicted    -0.8632372E-03 (  -2.07%)
   displ. norm   :     0.6956084 α      lambda       -0.9122084E-03
   maximum displ.:     0.3836738 α      in ANC's #7, #5, #10, ...

........................................................................
.............................. CYCLE   33 ..............................
........................................................................

 iter      E             dE          RMSdq      gap      omega  full diag
   1   -130.5354592 -0.130535E+03  0.146E-01    2.76       0.0  T
   2   -130.5354644 -0.517298E-05  0.835E-02    2.76       1.0  T
   3   -130.5354582  0.617695E-05  0.143E-02    2.76       1.0  T
   4   -130.5354639 -0.574760E-05  0.673E-03    2.76       1.6  T
   5   -130.5354665 -0.259462E-05  0.185E-03    2.76       5.8  T
   6   -130.5354666 -0.104827E-06  0.134E-03    2.76       8.0  T
   7   -130.5354667 -0.199744E-07  0.818E-04    2.76      13.0  T
   8   -130.5354667 -0.581829E-08  0.377E-04    2.76      28.3  T
     SCC iter.                  ...        0 min,  1.072 sec
     gradient                   ...        0 min,  0.120 sec
 * total energy  :  -128.4944449 Eh     change       -0.6557668E-03 Eh
   gradient norm :     0.0110261 Eh/α   predicted    -0.6768003E-03 (   3.21%)
   displ. norm   :     0.5586963 α      lambda       -0.7766524E-03
   maximum displ.:     0.3167139 α      in ANC's #7, #10, #5, ...

........................................................................
.............................. CYCLE   34 ..............................
........................................................................

 iter      E             dE          RMSdq      gap      omega  full diag
   1   -130.5391846 -0.130539E+03  0.114E-01    2.77       0.0  T
   2   -130.5391908 -0.616218E-05  0.652E-02    2.77       1.0  T
   3   -130.5391815  0.931324E-05  0.141E-02    2.77       1.0  T
   4   -130.5391917 -0.101920E-04  0.576E-03    2.76       1.9  T
   5   -130.5391930 -0.135393E-05  0.182E-03    2.76       5.9  T
   6   -130.5391931 -0.127314E-06  0.955E-04    2.76      11.2  T
   7   -130.5391932 -0.137235E-07  0.652E-04    2.76      16.3  T
     SCC iter.                  ...        0 min,  1.010 sec
     gradient                   ...        0 min,  0.119 sec
 * total energy  :  -128.4950307 Eh     change       -0.5857575E-03 Eh
   gradient norm :     0.0083999 Eh/α   predicted    -0.5095410E-03 ( -13.01%)
   displ. norm   :     0.5496936 α      lambda       -0.6379693E-03
   maximum displ.:     0.3100377 α      in ANC's #7, #10, #5, ...

........................................................................
.............................. CYCLE   35 ..............................
........................................................................

 iter      E             dE          RMSdq      gap      omega  full diag
   1   -130.5428254 -0.130543E+03  0.108E-01    2.80       0.0  T
   2   -130.5428319 -0.649599E-05  0.621E-02    2.80       1.0  T
   3   -130.5428274  0.446442E-05  0.114E-02    2.80       1.0  T
   4   -130.5428319 -0.451712E-05  0.528E-03    2.80       2.0  T
   5   -130.5428333 -0.140938E-05  0.197E-03    2.80       5.4  T
   6   -130.5428335 -0.187543E-06  0.985E-04    2.80      10.8  T
   7   -130.5428335 -0.210087E-07  0.669E-04    2.80      15.9  T
     SCC iter.                  ...        0 min,  0.904 sec
     gradient                   ...        0 min,  0.121 sec
 * total energy  :  -128.4954994 Eh     change       -0.4687673E-03 Eh
   gradient norm :     0.0084012 Eh/α   predicted    -0.4153703E-03 ( -11.39%)
   displ. norm   :     0.5970714 α      lambda       -0.6181756E-03
   maximum displ.:     0.3321429 α      in ANC's #7, #5, #10, ...

........................................................................
.............................. CYCLE   36 ..............................
........................................................................

 iter      E             dE          RMSdq      gap      omega  full diag
   1   -130.5431627 -0.130543E+03  0.117E-01    2.81       0.0  T
   2   -130.5431680 -0.529791E-05  0.669E-02    2.81       1.0  T
   3   -130.5431651  0.287200E-05  0.105E-02    2.81       1.0  T
   4   -130.5431680 -0.292554E-05  0.480E-03    2.81       2.2  T
   5   -130.5431692 -0.116968E-05  0.145E-03    2.81       7.4  T
   6   -130.5431693 -0.137550E-06  0.620E-04    2.81      17.2  T
   7   -130.5431694 -0.152016E-07  0.360E-04    2.81      29.6  T
     SCC iter.                  ...        0 min,  0.952 sec
     gradient                   ...        0 min,  0.118 sec
 * total energy  :  -128.4959184 Eh     change       -0.4190105E-03 Eh
   gradient norm :     0.0087787 Eh/α   predicted    -0.4192775E-03 (   0.06%)
   displ. norm   :     0.4873865 α      lambda       -0.5079852E-03
   maximum displ.:     0.2468374 α      in ANC's #7, #5, #8, ...

........................................................................
.............................. CYCLE   37 ..............................
........................................................................

 iter      E             dE          RMSdq      gap      omega  full diag
   1   -130.5457152 -0.130546E+03  0.839E-02    2.83       0.0  T
   2   -130.5457178 -0.260729E-05  0.481E-02    2.83       1.0  T
   3   -130.5457145  0.332535E-05  0.894E-03    2.83       1.2  T
   4   -130.5457183 -0.385808E-05  0.381E-03    2.83       2.8  T
   5   -130.5457188 -0.456017E-06  0.129E-03    2.83       8.3  T
   6   -130.5457189 -0.800325E-07  0.623E-04    2.83      17.1  T
   7   -130.5457189 -0.788043E-08  0.366E-04    2.83      29.1  T
     SCC iter.                  ...        0 min,  1.045 sec
     gradient                   ...        0 min,  0.123 sec
 * total energy  :  -128.4962682 Eh     change       -0.3497273E-03 Eh
   gradient norm :     0.0085237 Eh/α   predicted    -0.3143281E-03 ( -10.12%)
   displ. norm   :     0.5472385 α      lambda       -0.4747795E-03
   maximum displ.:     0.2747116 α      in ANC's #7, #5, #8, ...

........................................................................
.............................. CYCLE   38 ..............................
........................................................................

 iter      E             dE          RMSdq      gap      omega  full diag
   1   -130.5420011 -0.130542E+03  0.956E-02    2.86       0.0  T
   2   -130.5420046 -0.342024E-05  0.546E-02    2.86       1.0  T
   3   -130.5420011  0.345929E-05  0.911E-03    2.86       1.2  T
   4   -130.5420051 -0.400689E-05  0.399E-03    2.86       2.7  T
   5   -130.5420057 -0.596145E-06  0.117E-03    2.86       9.1  T
   6   -130.5420058 -0.664273E-07  0.561E-04    2.86      19.0  T
   7   -130.5420058 -0.110354E-07  0.227E-04    2.86      47.0  T
     SCC iter.                  ...        0 min,  0.832 sec
     gradient                   ...        0 min,  0.126 sec
 * total energy  :  -128.4965578 Eh     change       -0.2896499E-03 Eh
   gradient norm :     0.0097316 Eh/α   predicted    -0.3084850E-03 (   6.50%)
   displ. norm   :     0.4255461 α      lambda       -0.5186432E-03
   maximum displ.:     0.1979692 α      in ANC's #4, #3, #7, ...

........................................................................
.............................. CYCLE   39 ..............................
........................................................................

 iter      E             dE          RMSdq      gap      omega  full diag
   1   -130.5494310 -0.130549E+03  0.705E-02    2.84       0.0  T
   2   -130.5494347 -0.372279E-05  0.398E-02    2.85       1.0  T
   3   -130.5494325  0.222543E-05  0.822E-03    2.85       1.3  T
   4   -130.5494350 -0.247460E-05  0.382E-03    2.85       2.8  T
   5   -130.5494356 -0.639895E-06  0.120E-03    2.85       8.9  T
   6   -130.5494357 -0.726528E-07  0.615E-04    2.85      17.3  T
   7   -130.5494357 -0.101413E-07  0.365E-04    2.85      29.2  T
     SCC iter.                  ...        0 min,  0.883 sec
     gradient                   ...        0 min,  0.119 sec
 * total energy  :  -128.4968859 Eh     change       -0.3281253E-03 Eh
   gradient norm :     0.0108629 Eh/α   predicted    -0.3062853E-03 (  -6.66%)
   displ. norm   :     0.5014150 α      lambda       -0.5176220E-03
   maximum displ.:     0.2283438 α      in ANC's #7, #5, #3, ...

........................................................................
.............................. CYCLE   40 ..............................
........................................................................

 iter      E             dE          RMSdq      gap      omega  full diag
   1   -130.5393865 -0.130539E+03  0.870E-02    2.82       0.0  T
   2   -130.5393908 -0.436767E-05  0.501E-02    2.82       1.0  T
   3   -130.5393846  0.626621E-05  0.111E-02    2.82       1.0  T
   4   -130.5393920 -0.746084E-05  0.373E-03    2.82       2.9  T
   5   -130.5393924 -0.358462E-06  0.145E-03    2.82       7.4  T
   6   -130.5393924 -0.489345E-07  0.694E-04    2.82      15.4  T
   7   -130.5393924 -0.111660E-07  0.441E-04    2.82      24.2  T
     SCC iter.                  ...        0 min,  0.847 sec
     gradient                   ...        0 min,  0.122 sec
 * total energy  :  -128.4971353 Eh     change       -0.2494168E-03 Eh
   gradient norm :     0.0131250 Eh/α   predicted    -0.3238844E-03 (  29.86%)
   displ. norm   :     0.4120129 α      lambda       -0.7564847E-03
   maximum displ.:     0.2551642 α      in ANC's #4, #3, #6, ...

........................................................................
.............................. CYCLE   41 ..............................
........................................................................

 iter      E             dE          RMSdq      gap      omega  full diag
   1   -130.5514832 -0.130551E+03  0.770E-02    2.77       0.0  T
   2   -130.5514914 -0.813594E-05  0.460E-02    2.77       1.0  T
   3   -130.5514795  0.118617E-04  0.156E-02    2.77       1.0  T
   4   -130.5514943 -0.147466E-04  0.496E-03    2.77       2.2  T
   5   -130.5514947 -0.443805E-06  0.244E-03    2.77       4.4  T
   6   -130.5514948 -0.114035E-06  0.144E-03    2.77       7.4  T
   7   -130.5514948 -0.259998E-07  0.103E-03    2.77      10.3  T
   8   -130.5514948  0.316081E-08  0.620E-04    2.77      17.2  T
   9   -130.5514948 -0.112259E-07  0.286E-04    2.77      37.3  T
     SCC iter.                  ...        0 min,  1.231 sec
     gradient                   ...        0 min,  0.122 sec
 * total energy  :  -128.4973594 Eh     change       -0.2240273E-03 Eh
   gradient norm :     0.0139580 Eh/α   predicted    -0.4424524E-03 (  97.50%)
   displ. norm   :     0.3729063 α      lambda       -0.6188449E-03
   maximum displ.:     0.1766263 α      in ANC's #7, #5, #3, ...

........................................................................
.............................. CYCLE   42 ..............................
........................................................................

 iter      E             dE          RMSdq      gap      omega  full diag
   1   -130.5483088 -0.130548E+03  0.721E-02    2.81       0.0  T
   2   -130.5483134 -0.451945E-05  0.429E-02    2.81       1.0  T
   3   -130.5483041  0.929827E-05  0.131E-02    2.81       1.0  T
   4   -130.5483150 -0.109359E-04  0.364E-03    2.81       2.9  T
   5   -130.5483154 -0.380848E-06  0.178E-03    2.81       6.0  T
   6   -130.5483155 -0.764695E-07  0.891E-04    2.81      12.0  T
   7   -130.5483155 -0.176642E-07  0.538E-04    2.81      19.8  T
     SCC iter.                  ...        0 min,  0.777 sec
     gradient                   ...        0 min,  0.117 sec
 * total energy  :  -128.4977542 Eh     change       -0.3948719E-03 Eh
   gradient norm :     0.0094344 Eh/α   predicted    -0.3524530E-03 ( -10.74%)
   displ. norm   :     0.4340710 α      lambda       -0.4649672E-03
   maximum displ.:     0.2020142 α      in ANC's #4, #3, #7, ...
 * RMSD in coord.:     1.0892797 α      energy gain  -0.2338978E-01 Eh

generating ANC from exact Hessian ...
Using Lindh-Hessian (1995)
 Shifting diagonal of input Hessian by    1.0461796016129617E-002
 Lowest  eigenvalues of input Hessian
    0.010000    0.010384    0.000000    0.000000    0.000000    0.000000
    0.000000    0.000000    0.010586    0.010675    0.010797    0.010850
    0.010936    0.011024    0.011354    0.011411    0.011496    0.011728
 Highest eigenvalues
    2.015222    2.019531    2.059262    2.086055    2.101027    2.270651


........................................................................
.............................. CYCLE   43 ..............................
........................................................................

 iter      E             dE          RMSdq      gap      omega  full diag
   1   -130.5458358 -0.130546E+03  0.647E-02    2.86       0.0  T
   2   -130.5458416 -0.576639E-05  0.382E-02    2.86       1.0  T
   3   -130.5458390  0.251757E-05  0.907E-03    2.86       1.2  T
   4   -130.5458419 -0.281453E-05  0.412E-03    2.86       2.6  T
   5   -130.5458427 -0.798272E-06  0.198E-03    2.86       5.4  T
   6   -130.5458427 -0.674607E-07  0.114E-03    2.86       9.3  T
   7   -130.5458428 -0.260360E-07  0.791E-04    2.86      13.5  T
   8   -130.5458428 -0.156967E-08  0.467E-04    2.86      22.9  T
     SCC iter.                  ...        0 min,  1.013 sec
     gradient                   ...        0 min,  0.122 sec
 * total energy  :  -128.4980198 Eh     change       -0.2655538E-03 Eh
   gradient norm :     0.0086009 Eh/α   predicted     0.0000000E+00 (-100.00%)
   displ. norm   :     0.1005732 α      lambda       -0.2853927E-03
   maximum displ.:     0.0522920 α      in ANC's #4, #3, #28, ...

........................................................................
.............................. CYCLE   44 ..............................
........................................................................

 iter      E             dE          RMSdq      gap      omega  full diag
   1   -130.5471642 -0.130547E+03  0.545E-02    2.84       0.0  T
   2   -130.5471674 -0.319002E-05  0.275E-02    2.84       1.0  T
   3   -130.5471669  0.447210E-06  0.906E-03    2.84       1.2  T
   4   -130.5471674 -0.453209E-06  0.576E-03    2.84       1.9  T
   5   -130.5471681 -0.743751E-06  0.270E-03    2.84       4.0  T
   6   -130.5471682 -0.127521E-06  0.162E-03    2.84       6.6  T
   7   -130.5471683 -0.230988E-07  0.953E-04    2.84      11.2  T
   8   -130.5471683 -0.165095E-07  0.530E-04    2.84      20.1  T
     SCC iter.                  ...        0 min,  1.134 sec
     gradient                   ...        0 min,  0.120 sec
 * total energy  :  -128.4981791 Eh     change       -0.1593075E-03 Eh
   gradient norm :     0.0034363 Eh/α   predicted    -0.1442888E-03 (  -9.43%)
   displ. norm   :     0.1643430 α      lambda       -0.2443686E-03
   maximum displ.:     0.0916502 α      in ANC's #4, #3, #11, ...

........................................................................
.............................. CYCLE   45 ..............................
........................................................................

 iter      E             dE          RMSdq      gap      omega  full diag
   1   -130.5489103 -0.130549E+03  0.516E-02    2.87       0.0  T
   2   -130.5489123 -0.206762E-05  0.267E-02    2.87       1.0  T
   3   -130.5489116  0.695267E-06  0.748E-03    2.87       1.4  T
   4   -130.5489122 -0.561382E-06  0.471E-03    2.87       2.3  T
   5   -130.5489129 -0.738965E-06  0.196E-03    2.87       5.4  T
   6   -130.5489130 -0.829380E-07  0.126E-03    2.87       8.5  T
   7   -130.5489130 -0.147157E-07  0.807E-04    2.87      13.2  T
   8   -130.5489130 -0.518611E-08  0.382E-04    2.87      27.9  T
     SCC iter.                  ...        0 min,  1.072 sec
     gradient                   ...        0 min,  0.145 sec
 * total energy  :  -128.4983016 Eh     change       -0.1224542E-03 Eh
   gradient norm :     0.0056641 Eh/α   predicted    -0.1254850E-03 (   2.48%)
   displ. norm   :     0.1491833 α      lambda       -0.1522354E-03
   maximum displ.:     0.0892289 α      in ANC's #4, #3, #11, ...

........................................................................
.............................. CYCLE   46 ..............................
........................................................................

 iter      E             dE          RMSdq      gap      omega  full diag
   1   -130.5489687 -0.130549E+03  0.305E-02    2.88       0.0  T
   2   -130.5489692 -0.550306E-06  0.173E-02    2.88       1.0  T
   3   -130.5489689  0.293708E-06  0.320E-03    2.88       3.3  T
   4   -130.5489692 -0.263528E-06  0.148E-03    2.88       7.2  T
   5   -130.5489693 -0.144406E-06  0.542E-04    2.88      19.7  T
   6   -130.5489693 -0.101527E-07  0.266E-04    2.88      40.1  T
     SCC iter.                  ...        0 min,  0.736 sec
     gradient                   ...        0 min,  0.121 sec
 * total energy  :  -128.4984353 Eh     change       -0.1336952E-03 Eh
   gradient norm :     0.0051035 Eh/α   predicted    -0.7781200E-04 ( -41.80%)
   displ. norm   :     0.3742482 α      lambda       -0.3438731E-03
   maximum displ.:     0.2180123 α      in ANC's #4, #3, #11, ...

........................................................................
.............................. CYCLE   47 ..............................
........................................................................

 iter      E             dE          RMSdq      gap      omega  full diag
   1   -130.5475074 -0.130548E+03  0.726E-02    2.90       0.0  T
   2   -130.5475096 -0.219323E-05  0.417E-02    2.90       1.0  T
   3   -130.5475083  0.135481E-05  0.610E-03    2.90       1.7  T
   4   -130.5475097 -0.144966E-05  0.309E-03    2.90       3.4  T
   5   -130.5475102 -0.467210E-06  0.146E-03    2.90       7.3  T
   6   -130.5475102 -0.599791E-07  0.869E-04    2.90      12.3  T
   7   -130.5475102 -0.520518E-08  0.542E-04    2.90      19.7  T
     SCC iter.                  ...        0 min,  0.804 sec
     gradient                   ...        0 min,  0.122 sec
 * total energy  :  -128.4986977 Eh     change       -0.2624756E-03 Eh
   gradient norm :     0.0037252 Eh/α   predicted    -0.1960184E-03 ( -25.32%)
   displ. norm   :     0.4407574 α      lambda       -0.2861931E-03
   maximum displ.:     0.2543319 α      in ANC's #4, #3, #11, ...

........................................................................
.............................. CYCLE   48 ..............................
........................................................................

 iter      E             dE          RMSdq      gap      omega  full diag
   1   -130.5462745 -0.130546E+03  0.811E-02    2.91       0.0  T
   2   -130.5462780 -0.348805E-05  0.457E-02    2.91       1.0  T
   3   -130.5462770  0.993930E-06  0.800E-03    2.91       1.3  T
   4   -130.5462776 -0.574520E-06  0.412E-03    2.91       2.6  T
   5   -130.5462787 -0.110808E-05  0.165E-03    2.91       6.4  T
   6   -130.5462788 -0.766225E-07  0.647E-04    2.91      16.5  T
   7   -130.5462788 -0.502763E-08  0.394E-04    2.91      27.1  T
     SCC iter.                  ...        0 min,  0.898 sec
     gradient                   ...        0 min,  0.123 sec
 * total energy  :  -128.4989178 Eh     change       -0.2200996E-03 Eh
   gradient norm :     0.0060352 Eh/α   predicted    -0.1709012E-03 ( -22.35%)
   displ. norm   :     0.4367469 α      lambda       -0.2603997E-03
   maximum displ.:     0.2578601 α      in ANC's #4, #3, #7, ...

........................................................................
.............................. CYCLE   49 ..............................
........................................................................

 iter      E             dE          RMSdq      gap      omega  full diag
   1   -130.5458686 -0.130546E+03  0.707E-02    2.93       0.0  T
   2   -130.5458698 -0.119820E-05  0.408E-02    2.93       1.0  T
   3   -130.5458691  0.691648E-06  0.433E-03    2.93       2.5  T
   4   -130.5458698 -0.706733E-06  0.245E-03    2.93       4.3  T
   5   -130.5458702 -0.415437E-06  0.771E-04    2.93      13.8  T
   6   -130.5458702 -0.134935E-07  0.452E-04    2.93      23.6  T
     SCC iter.                  ...        0 min,  0.693 sec
     gradient                   ...        0 min,  0.119 sec
 * total energy  :  -128.4991451 Eh     change       -0.2272665E-03 Eh
   gradient norm :     0.0062943 Eh/α   predicted    -0.1550391E-03 ( -31.78%)
   displ. norm   :     0.4984900 α      lambda       -0.3434585E-03
   maximum displ.:     0.2947312 α      in ANC's #4, #3, #7, ...

........................................................................
.............................. CYCLE   50 ..............................
........................................................................

 iter      E             dE          RMSdq      gap      omega  full diag
   1   -130.5475507 -0.130548E+03  0.715E-02    2.93       0.0  T
   2   -130.5475520 -0.138931E-05  0.410E-02    2.93       1.0  T
   3   -130.5475512  0.810823E-06  0.510E-03    2.93       2.1  T
   4   -130.5475521 -0.861636E-06  0.278E-03    2.94       3.8  T
   5   -130.5475525 -0.442008E-06  0.875E-04    2.93      12.2  T
   6   -130.5475526 -0.264639E-07  0.472E-04    2.94      22.6  T
     SCC iter.                  ...        0 min,  0.964 sec
     gradient                   ...        0 min,  0.121 sec
 * total energy  :  -128.4994455 Eh     change       -0.3004087E-03 Eh
   gradient norm :     0.0044535 Eh/α   predicted    -0.2144042E-03 ( -28.63%)
   displ. norm   :     0.6259089 α      lambda       -0.3943160E-03
   maximum displ.:     0.3733774 α      in ANC's #4, #3, #7, ...

........................................................................
.............................. CYCLE   51 ..............................
........................................................................

 iter      E             dE          RMSdq      gap      omega  full diag
   1   -130.5480338 -0.130548E+03  0.841E-02    2.95       0.0  T
   2   -130.5480359 -0.210797E-05  0.482E-02    2.95       1.0  T
   3   -130.5480350  0.876067E-06  0.626E-03    2.95       1.7  T
   4   -130.5480360 -0.103441E-05  0.333E-03    2.95       3.2  T
   5   -130.5480366 -0.546996E-06  0.108E-03    2.95       9.9  T
   6   -130.5480366 -0.479969E-07  0.666E-04    2.95      16.0  T
   7   -130.5480366 -0.472014E-08  0.455E-04    2.95      23.4  T
     SCC iter.                  ...        0 min,  0.850 sec
     gradient                   ...        0 min,  0.118 sec
 * total energy  :  -128.4997867 Eh     change       -0.3411923E-03 Eh
   gradient norm :     0.0032294 Eh/α   predicted    -0.2744015E-03 ( -19.58%)
   displ. norm   :     0.6606251 α      lambda       -0.3703268E-03
   maximum displ.:     0.3949993 α      in ANC's #4, #3, #7, ...

........................................................................
.............................. CYCLE   52 ..............................
........................................................................

 iter      E             dE          RMSdq      gap      omega  full diag
   1   -130.5483515 -0.130548E+03  0.839E-02    2.96       0.0  T
   2   -130.5483541 -0.258395E-05  0.475E-02    2.96       1.0  T
   3   -130.5483533  0.784971E-06  0.706E-03    2.96       1.5  T
   4   -130.5483542 -0.907455E-06  0.385E-03    2.96       2.8  T
[...]
    21   6 C        2.923    -0.034    28.838     8.806
    22   6 C        2.919    -0.026    28.643     8.776
    23   6 C        2.920    -0.026    28.657     8.779
    24   6 C        2.918    -0.027    28.680     8.782
    25   6 C        2.924    -0.031    28.785     8.799
    26   6 C        2.930    -0.032    28.795     8.800
    27   6 C        2.914    -0.037    28.914     8.818
    28   6 C        3.022     0.012    27.721     8.636
    29   6 C        3.020    -0.017    28.415     8.744
    30   6 C        3.968     0.026    20.065     6.365
    31   6 C        3.854    -0.058    21.578     6.607
    32   6 C        3.832    -0.063    21.687     6.626
    33   6 C        3.851    -0.059    21.602     6.611
    34   6 C        3.832    -0.065    21.714     6.630
    35   6 C        3.026     0.012    27.727     8.637
    36   6 C        2.913    -0.040    28.992     8.829
    37   6 C        2.932    -0.037    28.921     8.820
    38   6 C        2.973    -0.010    28.261     8.720
    39   6 C        2.975     0.010    27.793     8.648
    40   6 C        2.924    -0.036    28.896     8.815
    41   6 C        2.918    -0.028    28.700     8.785
    42   6 C        2.920    -0.026    28.654     8.778
    43   6 C        2.918    -0.030    28.737     8.791
    44   6 C        2.924    -0.034    28.844     8.807
    45   6 C        3.073     0.117    25.357     8.256
    46   6 C        3.018    -0.017    28.414     8.744
    47   8 O        1.658    -0.271    18.504     5.807
    48   1 H        0.925     0.066     2.131     2.283
    49   1 H        0.925     0.059     2.210     2.325
    50   1 H        0.925     0.053     2.286     2.364
    51   1 H        0.924     0.053     2.284     2.363
    52   1 H        0.924     0.045     2.383     2.414
    53   1 H        0.925     0.066     2.130     2.282
    54   1 H        0.925     0.059     2.215     2.327
    55   1 H        0.924     0.066     2.130     2.283
    56   1 H        0.925     0.056     2.246     2.344
    57   1 H        0.925     0.061     2.182     2.310
    58   1 H        0.925     0.064     2.156     2.296
    59   1 H        0.925     0.053     2.281     2.362
    60   1 H        0.925     0.052     2.299     2.371
    61   1 H        0.925     0.069     2.097     2.265
    62   1 H        0.926     0.046     2.374     2.410
    63   1 H        0.926     0.054     2.273     2.358
    64   1 H        0.926     0.056     2.243     2.342
    65   1 H        0.926     0.055     2.263     2.352
    66   1 H        0.925     0.052     2.292     2.367
    67   1 H        0.925     0.041     2.436     2.441
    68   1 H        0.926     0.047     2.360     2.402
    69   1 H        0.926     0.047     2.359     2.402
    70   1 H        0.926     0.044     2.397     2.421
    71   1 H        0.926     0.032     2.553     2.499
    72   1 H        0.926     0.064     2.149     2.292
    73   1 H        0.926     0.062     2.172     2.305
    74   1 H        0.925     0.051     2.311     2.377
    75   1 H        0.924     0.036     2.500     2.473
    76   1 H        0.925     0.056     2.241     2.341
    77   1 H        0.924     0.062     2.179     2.309
    78   1 H        0.925     0.051     2.304     2.374
    79   1 H        0.924     0.041     2.429     2.437
    80   1 H        0.924     0.061     2.187     2.313
    81   1 H        0.925     0.060     2.195     2.317
    82   1 H        0.926     0.061     2.190     2.314
    83   1 H        0.926     0.063     2.160     2.298
    84   1 H        0.926     0.042     2.418     2.432
    85   1 H        0.926     0.046     2.375     2.410
    86   1 H        0.926     0.047     2.359     2.402
    87   1 H        0.926     0.038     2.470     2.458
    88   1 H        0.926     0.028     2.609     2.526

 Mol. C6AA /au·bohr⁶  :     105382.861541
 Mol. C8AA /au·bohr⁸  :    2915516.244230
 Mol. α(0) /au        :        518.274844


Wiberg/Mayer (AO) data.
largest (>0.10) Wiberg bond orders for each atom

 ---------------------------------------------------------------------------
     #   Z sym  total        # sym  WBO       # sym  WBO       # sym  WBO
 ---------------------------------------------------------------------------
     1   6 C    3.986 --     2 C    1.003    50 H    0.984    49 H    0.979
                            48 H    0.977
     2   6 C    3.956 --     3 C    1.006     1 C    1.003     4 N    0.943
                            51 H    0.939
     3   6 C    3.989 --     2 C    1.006    54 H    0.981    53 H    0.980
                            52 H    0.970
     4   7 N    3.391 --     8 P    1.250     2 C    0.943     5 C    0.937
     5   6 C    3.954 --     7 C    1.008     6 C    1.006    55 H    0.954
                             4 N    0.937
     6   6 C    3.989 --     5 C    1.006    56 H    0.984    58 H    0.980
                            57 H    0.977
     7   6 C    3.989 --     5 C    1.008    61 H    0.978    60 H    0.974
                            59 H    0.957
     8  15 P    5.077 --    47 O    1.303    17 O    1.300     4 N    1.250
                             9 Se   0.910
     9  34 Se   2.546 --    10 S    1.259     8 P    0.910
    10  16 S    2.422 --     9 Se   1.259    11 C    0.972
    11   6 C    3.954 --    16 C    1.406    12 C    1.405    10 S    0.972
                            14 C    0.103
    12   6 C    3.989 --    13 C    1.437    11 C    1.405    62 H    0.965
                            15 C    0.108
    13   6 C    3.988 --    14 C    1.439    12 C    1.437    63 H    0.968
                            16 C    0.110
    14   6 C    3.982 --    13 C    1.439    15 C    1.431    64 H    0.969
                            11 C    0.103
    15   6 C    3.991 --    16 C    1.443    14 C    1.431    65 H    0.967
                            12 C    0.108
    16   6 C    3.989 --    15 C    1.443    11 C    1.406    66 H    0.956
                            13 C    0.110
    17   8 O    2.417 --     8 P    1.300    18 C    0.881
    18   6 C    3.875 --    29 C    1.403    19 C    1.342    17 O    0.881
    19   6 C    3.984 --    26 C    1.397    18 C    1.342    20 C    1.030
    20   6 C    3.988 --    21 C    1.391    25 C    1.388    19 C    1.030
                            23 C    0.107
    21   6 C    3.990 --    22 C    1.447    20 C    1.391    67 H    0.963
                            24 C    0.109
    22   6 C    3.991 --    21 C    1.447    23 C    1.436    68 H    0.969
                            25 C    0.110
    23   6 C    3.987 --    24 C    1.437    22 C    1.436    69 H    0.970
                            20 C    0.107
    24   6 C    3.990 --    25 C    1.445    23 C    1.437    70 H    0.970
                            21 C    0.109
    25   6 C    3.990 --    24 C    1.445    20 C    1.388    71 H    0.969
                            22 C    0.110
    26   6 C    3.984 --    27 C    1.433    19 C    1.397    72 H    0.966
                            29 C    0.101
    27   6 C    3.988 --    26 C    1.433    28 C    1.429    73 H    0.966
    28   6 C    3.981 --    27 C    1.429    29 C    1.351    32 C    1.016
    29   6 C    3.982 --    18 C    1.403    28 C    1.351    30 C    0.992
                            26 C    0.101
    30   6 C    3.987 --    29 C    0.992    46 C    0.987    33 C    0.958
                            31 C    0.954
    31   6 C    3.993 --    32 C    1.002    74 H    0.977    75 H    0.976
                            30 C    0.954
    32   6 C    3.994 --    28 C    1.016    31 C    1.002    76 H    0.966
                            77 H    0.956
    33   6 C    3.993 --    34 C    1.002    79 H    0.979    78 H    0.978
                            30 C    0.958
    34   6 C    3.994 --    35 C    1.016    33 C    1.002    81 H    0.964
                            80 H    0.956
    35   6 C    3.978 --    36 C    1.429    46 C    1.345    34 C    1.016
    36   6 C    3.988 --    37 C    1.435    35 C    1.429    82 H    0.966
    37   6 C    3.984 --    36 C    1.435    38 C    1.392    83 H    0.963
                            46 C    0.100
    38   6 C    3.983 --    37 C    1.392    45 C    1.334    39 C    1.050
    39   6 C    3.988 --    44 C    1.380    40 C    1.378    38 C    1.050
                            42 C    0.104
    40   6 C    3.990 --    41 C    1.455    39 C    1.378    84 H    0.966
                            43 C    0.108
    41   6 C    3.991 --    40 C    1.455    42 C    1.431    85 H    0.970
                            44 C    0.107
    42   6 C    3.985 --    43 C    1.436    41 C    1.431    86 H    0.970
                            39 C    0.104
    43   6 C    3.991 --    44 C    1.450    42 C    1.436    87 H    0.967
                            40 C    0.108
    44   6 C    3.990 --    43 C    1.450    39 C    1.380    88 H    0.967
                            41 C    0.107
    45   6 C    3.874 --    46 C    1.410    38 C    1.334    47 O    0.869
    46   6 C    3.981 --    45 C    1.410    35 C    1.345    30 C    0.987
                            37 C    0.100
    47   8 O    2.403 --     8 P    1.303    45 C    0.869
    48   1 H    0.995 --     1 C    0.977
    49   1 H    0.996 --     1 C    0.979
    50   1 H    0.997 --     1 C    0.984
    51   1 H    0.997 --     2 C    0.939
    52   1 H    0.998 --     3 C    0.970
    53   1 H    0.995 --     3 C    0.980
    54   1 H    0.996 --     3 C    0.981
    55   1 H    0.995 --     5 C    0.954
    56   1 H    0.997 --     6 C    0.984
    57   1 H    0.996 --     6 C    0.977
    58   1 H    0.995 --     6 C    0.980
    59   1 H    0.997 --     7 C    0.957
    60   1 H    0.997 --     7 C    0.974
    61   1 H    0.995 --     7 C    0.978
    62   1 H    0.998 --    12 C    0.965
    63   1 H    0.996 --    13 C    0.968
    64   1 H    0.996 --    14 C    0.969
    65   1 H    0.997 --    15 C    0.967
    66   1 H    0.997 --    16 C    0.956
    67   1 H    0.998 --    21 C    0.963
    68   1 H    0.997 --    22 C    0.969
    69   1 H    0.997 --    23 C    0.970
    70   1 H    0.997 --    24 C    0.970
    71   1 H    0.999 --    25 C    0.969
    72   1 H    0.995 --    26 C    0.966
    73   1 H    0.995 --    27 C    0.966
    74   1 H    0.997 --    31 C    0.977
    75   1 H    0.999 --    31 C    0.976
    76   1 H    0.995 --    32 C    0.966
    77   1 H    0.995 --    32 C    0.956
    78   1 H    0.997 --    33 C    0.978
    79   1 H    0.998 --    33 C    0.979
    80   1 H    0.995 --    34 C    0.956
    81   1 H    0.995 --    34 C    0.964
    82   1 H    0.995 --    36 C    0.966
    83   1 H    0.995 --    37 C    0.963
    84   1 H    0.998 --    40 C    0.966
    85   1 H    0.997 --    41 C    0.970
    86   1 H    0.997 --    42 C    0.970
    87   1 H    0.998 --    43 C    0.967
    88   1 H    0.999 --    44 C    0.967
 ---------------------------------------------------------------------------

Topologies differ in total number of bonds
Writing topology from bond orders to xtbtopo.mol

molecular dipole:
                 x           y           z       tot (Debye)
 q only:        0.032       0.176      -0.498
   full:       -0.034       0.342      -0.522       1.587
molecular quadrupole (traceless):
                xx          xy          yy          xz          yz          zz
 q only:       -3.445       2.908       0.583      -8.357       4.659       2.862
  q+dip:       -0.295       3.991      -0.569      -8.427       6.817       0.863
   full:       -2.180       4.504      -0.596      -7.928       6.956       2.776

           -------------------------------------------------
          |                Geometry Summary                 |
           -------------------------------------------------

      molecular mass/u    :      721.7691937
   center of mass at/Å    :        0.2087802      -0.2225539       0.3110092
  moments of inertia/u·Å² :        0.6041522E+04   0.8191017E+04   0.8376647E+04
rotational constants/cm⁻¹ :        0.2790296E-02   0.2058063E-02   0.2012456E-02

 * 83 selected distances

     #   Z          #   Z                                           value/Å
     1   6 C        2   6 C                                       1.5253172
     2   6 C        3   6 C                                       1.5250390
     2   6 C        4   7 N                                       1.4722011
     4   7 N        5   6 C                                       1.4745400
     5   6 C        6   6 C                                       1.5238778
     5   6 C        7   6 C                                       1.5222035
     4   7 N        8  15 P                                       1.6406813
     8  15 P        9  34 Se                                      2.2679487 (max)
    11   6 C       12   6 C                                       1.3854219
    12   6 C       13   6 C                                       1.3846451
    13   6 C       14   6 C                                       1.3850522
    14   6 C       15   6 C                                       1.3864002
    11   6 C       16   6 C                                       1.3849970
    15   6 C       16   6 C                                       1.3831887
     8  15 P       17   8 O                                       1.5792030
    18   6 C       19   6 C                                       1.3980441
    20   6 C       21   6 C                                       1.3919916
    21   6 C       22   6 C                                       1.3830360
    22   6 C       23   6 C                                       1.3854570
    23   6 C       24   6 C                                       1.3851514
    20   6 C       25   6 C                                       1.3927857
    24   6 C       25   6 C                                       1.3833686
    19   6 C       26   6 C                                       1.3922532
    26   6 C       27   6 C                                       1.3845172
    27   6 C       28   6 C                                       1.3796210
    18   6 C       29   6 C                                       1.3783697
    28   6 C       29   6 C                                       1.3964337
    31   6 C       32   6 C                                       1.5336145
    33   6 C       34   6 C                                       1.5346574
    35   6 C       36   6 C                                       1.3787932
    36   6 C       37   6 C                                       1.3841314
    37   6 C       38   6 C                                       1.3946453
    39   6 C       40   6 C                                       1.3954580
    40   6 C       41   6 C                                       1.3820841
    41   6 C       42   6 C                                       1.3852446
    42   6 C       43   6 C                                       1.3845714
    39   6 C       44   6 C                                       1.3955099
    43   6 C       44   6 C                                       1.3825384
    38   6 C       45   6 C                                       1.4025178
    35   6 C       46   6 C                                       1.3982476
    45   6 C       46   6 C                                       1.3803645
     8  15 P       47   8 O                                       1.5823713
     1   6 C       48   1 H                                       1.0858594
     1   6 C       49   1 H                                       1.0863944
     1   6 C       50   1 H                                       1.0870180
     2   6 C       51   1 H                                       1.0941076
     3   6 C       52   1 H                                       1.0902452
     3   6 C       53   1 H                                       1.0867864
     3   6 C       54   1 H                                       1.0867431
     5   6 C       55   1 H                                       1.0920028
     6   6 C       56   1 H                                       1.0869651
     6   6 C       57   1 H                                       1.0841831
     6   6 C       58   1 H                                       1.0867528
     7   6 C       59   1 H                                       1.0877624
     7   6 C       60   1 H                                       1.0887551
     7   6 C       61   1 H                                       1.0868883
    12   6 C       62   1 H                                       1.0790918
    13   6 C       63   1 H                                       1.0790996
    14   6 C       64   1 H                                       1.0788969
    15   6 C       65   1 H                                       1.0794261
    16   6 C       66   1 H                                       1.0822297
    21   6 C       67   1 H                                       1.0812943
    22   6 C       68   1 H                                       1.0790877
    23   6 C       69   1 H                                       1.0789736
    24   6 C       70   1 H                                       1.0793840
    25   6 C       71   1 H                                       1.0805920
    26   6 C       72   1 H                                       1.0786198
    27   6 C       73   1 H                                       1.0784784
    31   6 C       74   1 H                                       1.0868415
    31   6 C       75   1 H                                       1.0920411
    32   6 C       76   1 H                                       1.0897626
    32   6 C       77   1 H                                       1.0922214
    33   6 C       78   1 H                                       1.0872497
    33   6 C       79   1 H                                       1.0916500
    34   6 C       80   1 H                                       1.0919464
    34   6 C       81   1 H                                       1.0898227
    36   6 C       82   1 H                                       1.0787003
    37   6 C       83   1 H                                       1.0782674 (min)
    40   6 C       84   1 H                                       1.0792924
    41   6 C       85   1 H                                       1.0795452
    42   6 C       86   1 H                                       1.0789573
    43   6 C       87   1 H                                       1.0791575
    44   6 C       88   1 H                                       1.0797805

 * 6 distinct bonds (by element types)

   Z      Z             #   av. dist./Å        max./Å        min./Å
   1 H    6 C          41     1.0844116     1.0941076     1.0782674
   6 C    6 C          36     1.4108208     1.5346574     1.3783697
   6 C    7 N           2     1.4733706     1.4745400     1.4722011
   7 N   15 P           1     1.6406813     1.6406813     1.6406813
   8 O   15 P           2     1.5807872     1.5823713     1.5792030
  15 P   34 Se          1     2.2679487     2.2679487     2.2679487


optimized geometry written to: xtbopt.xyz


           -------------------------------------------------
          | TOTAL ENERGY             -128.513054945302 Eh   |
          | GRADIENT NORM               0.000046650328 Eh/α |
          | HOMO-LUMO GAP               2.994957974194 eV   |
           -------------------------------------------------

------------------------------------------------------------------------
 * finished run on 2024/12/16 at 20:17:49.361     
------------------------------------------------------------------------
 total:
 * wall-time:     0 d,  0 h,  4 min, 47.287 sec
 *  cpu-time:     0 d,  0 h, 37 min, 45.920 sec
 * ratio c/w:     7.887 speedup
 SCF:
 * wall-time:     0 d,  0 h,  0 min,  2.711 sec
 *  cpu-time:     0 d,  0 h,  0 min, 21.550 sec
 * ratio c/w:     7.949 speedup
 ANC optimizer:
 * wall-time:     0 d,  0 h,  4 min, 44.409 sec
 *  cpu-time:     0 d,  0 h, 37 min, 23.086 sec
 * ratio c/w:     7.887 speedup

