88
 energy: -128.513054945302 gnorm: 0.000046650328 xtb: 6.7.1 (edcfbbe)
C            0.81150787217732        1.34612489782948       -3.82581333569097
C            1.34258167215476        0.55529504642269       -2.63453632921059
C            2.70014018034950       -0.07053251432426       -2.93639419316248
N            0.32694315749132       -0.41476677823204       -2.19313598679013
C            0.03933421054153       -1.53232833704195       -3.11107122389292
C           -1.46307032067385       -1.68170309701616       -3.31764082499881
C            0.68588989915579       -2.83187180374360       -2.65253477846396
P            0.22407570878521       -0.64513601532345       -0.57196879228381
Se           1.93607508519312       -1.66263015559859        0.51309081546988
S            1.50040437750673       -1.24097802954427        2.58621748808264
C            2.33135875228704        0.31627285188018        2.88499301431124
C            1.63285433561512        1.29674837405916        3.57066984758267
C            2.25980156018868        2.49535598594013        3.86650521390052
C            3.57262347860938        2.70672030393552        3.47895794746510
C            4.26345554444732        1.71746279071555        2.79615075283391
C            3.64617719625476        0.51603151733627        2.49825644805767
O           -1.16328253963759       -1.37316891370148       -0.37426480071893
C           -1.48123991481307       -1.74723950874223        0.95790677736363
C           -1.17642503241723       -3.03106614911641        1.41986337794175
C           -0.75910270483403       -4.10928121507883        0.50621335125837
C            0.39956242784903       -4.84296066811133        0.74464528088669
C            0.74510343940830       -5.88837002505412       -0.09231883555636
C           -0.07046131244261       -6.22390147836581       -1.16085223599964
C           -1.23322620013720       -5.50831531721932       -1.39442962061760
C           -1.57519653687617       -4.45208774618705       -0.56911275718605
C           -1.33833406836829       -3.30462162245842        2.77534170680471
C           -1.77933513741802       -2.33548242735670        3.66031330999262
C           -2.13293104396275       -1.09501386166516        3.17086330190191
C           -2.00813237258513       -0.80171492738376        1.81129436831387
C           -2.59305940074814        0.54772785372394        1.51440276053420
C           -2.48487952607200        1.23548890412436        2.90220596125454
C           -2.64193382083864        0.09818771677506        3.91899152636988
C           -4.07645991659775        0.43464253971542        1.09000957976209
C           -4.41564945080389        1.82080915581289        0.52550496166987
C           -3.09006719685678        2.32570050832603        0.04286269823717
C           -2.81772060944207        3.44927262122672       -0.70845833224874
C           -1.49806076519953        3.76054609615301       -0.98671373888157
C           -0.45054252597018        2.90541332104682       -0.64540933948768
C            0.93702133481407        3.32002984732657       -0.90842966930129
C            1.26427993365936        4.04209616315684       -2.05683058419345
C            2.56169214988454        4.46429066143899       -2.27735156963398
C            3.55450143084629        4.18040986319104       -1.35396448413118
C            3.23748787035583        3.48252712125483       -0.20092510615776
C            1.94089760573260        3.05929534770326        0.02521780427711
C           -0.76864925145921        1.71435854490593        0.02335991623738
C           -2.05611893366700        1.48427491760961        0.46482229787567
O            0.23259910638765        0.72086775206157        0.22669229619048
H            1.48099508730555        2.17695577999421       -4.02730098940897
H            0.75198657540350        0.73443345601637       -4.72166121254671
H           -0.17767602148837        1.73871438389479       -3.60446169158338
H            1.47915000793487        1.24945354165378       -1.79993203401246
H            3.06253083064833       -0.63897796994088       -2.07955282296401
H            3.41361675284416        0.72323039431552       -3.14132388652921
H            2.66252375664343       -0.72406626230254       -3.80385536914708
H            0.47911517954219       -1.24468218597577       -4.06831851303744
H           -1.90411281689160       -0.71883210665710       -3.56229117756121
H           -1.94599045032409       -2.07335634964965       -2.42946926514189
H           -1.64722533163178       -2.36669316626609       -4.14099188536346
H            0.26915322026986       -3.15225688038610       -1.70021621065548
H            1.76354465803587       -2.71935400849382       -2.54582244390362
H            0.49550621841874       -3.61654271956508       -3.38011400637473
H            0.61514188089665        1.11054557827086        3.87731112976265
H            1.72095479104314        3.26302538468099        4.40015630067219
H            4.05874944943916        3.64131124393713        3.71185199232397
H            5.29106835592484        1.87320258892122        2.50474448843180
H            4.17912696677997       -0.26431378982684        1.97076561117726
H            1.02807767056529       -4.58637225953074        1.58626756134019
H            1.64741452564940       -6.44923634126779        0.09660888360375
H            0.19489763712666       -7.04809218008182       -1.80465199198695
H           -1.87891543401973       -5.77553564501624       -2.21707674492329
H           -2.49079521221176       -3.90331176115900       -0.73704984334704
H           -1.10243333234672       -4.29581663250295        3.12932442446695
H           -1.85770540185227       -2.55369872076784        4.71357267324992
H           -3.22758863329878        2.01912132108078        3.02681620702829
H           -1.49656356789739        1.69052768103260        2.99561247555841
H           -2.08478169341910        0.27559430739555        4.83860596665315
H           -3.68914303831519       -0.04785834383996        4.19279928222440
H           -4.71657688133832        0.14572013304486        1.92000107076110
H           -4.16804097467955       -0.32044163071268        0.30696406632173
H           -4.81911680359536        2.48127654496059        1.29579304759913
H           -5.14826460373790        1.77405805101542       -0.27997786169384
H           -3.61363120818001        4.09857706725902       -1.03788853243743
H           -1.26493891653759        4.69064433179938       -1.47989924404014
H            0.50107023926056        4.26183158601111       -2.78765143769590
H            2.79849268015253        5.02070349195264       -3.17163785024121
H            4.56672992011298        4.51144251247976       -1.52705277901718
H            3.99880438435612        3.27331412119947        0.53474307801555
H            1.70236078534182        2.54297434112317        0.94306226867803
