88
 energy: -126.658881049076 gnorm: 6.726825707814 xtb: 6.7.1 (edcfbbe)
C           -0.87206900000000       -0.15273600000000       -3.93367400000000
C            0.13802900000000        0.33755700000000       -2.93896700000000
C            1.17531000000000        1.10287700000000       -3.77618800000000
N            0.72972700000000       -0.57481600000000       -2.05298700000000
C            1.59940800000000       -1.54151400000000       -2.52844400000000
C            0.88370800000000       -2.52204500000000       -3.44945000000000
C            2.35650600000000       -2.39523700000000       -1.54902500000000
P            0.31500400000000       -0.44547700000000       -0.40520100000000
Se           1.79949900000000       -0.95508400000000        0.75629100000000
S            2.55172200000000       -1.04208300000000        1.82885500000000
C            3.94045500000000       -0.24430300000000        2.62037100000000
C            4.37464300000000       -0.77034000000000        3.83681800000000
C            5.45693600000000       -0.17092000000000        4.48194800000000
C            6.06976800000000        0.92419200000000        3.90318000000000
C            5.65888000000000        1.45865000000000        2.70632400000000
C            4.58496200000000        0.84979300000000        2.08387600000000
O           -1.11555700000000       -1.37374100000000       -0.07864800000000
C           -2.06467700000000       -1.39159800000000        0.94313100000000
C           -2.18009400000000       -2.72598400000000        1.36138700000000
C           -1.40157800000000       -3.79502600000000        0.72708600000000
C           -0.75331200000000       -4.70531800000000        1.56079600000000
C           -0.00657200000000       -5.74994000000000        1.05518700000000
C            0.11666700000000       -5.91894800000000       -0.30408100000000
C           -0.52633800000000       -5.01569300000000       -1.12283300000000
C           -1.28209000000000       -3.95828800000000       -0.62192600000000
C           -3.01914400000000       -3.10848200000000        2.37221800000000
C           -3.76866400000000       -2.16238400000000        3.00018700000000
C           -3.67481400000000       -0.86576600000000        2.61403500000000
C           -2.83926300000000       -0.39833700000000        1.57305300000000
C           -3.13622000000000        0.98190800000000        1.42719100000000
C           -3.28131300000000        1.40619900000000        2.88234600000000
C           -4.27504600000000        0.33450300000000        3.31308900000000
C           -4.51456600000000        1.20277900000000        0.81148700000000
C           -4.60659900000000        2.72190000000000        0.91683000000000
C           -3.19371100000000        3.04807200000000        0.49442300000000
C           -2.79443500000000        4.21039000000000       -0.09299300000000
C           -1.53930600000000        4.32647500000000       -0.57891400000000
C           -0.67610600000000        3.27422300000000       -0.48266000000000
C            0.67592800000000        3.48173600000000       -1.00908900000000
C            0.75494100000000        4.09389200000000       -2.24933800000000
C            1.97235800000000        4.36230900000000       -2.86526700000000
C            3.11868800000000        3.97909700000000       -2.16252900000000
C            3.02472700000000        3.36875300000000       -0.92481700000000
C            1.81237600000000        3.11084500000000       -0.32994700000000
C           -1.05386500000000        2.06305200000000        0.11365300000000
C           -2.34951900000000        1.92188200000000        0.63699000000000
O            0.04951300000000        1.21637700000000        0.01721700000000
H           -1.72048600000000        0.61002900000000       -4.00645700000000
H           -0.48502400000000       -0.16907200000000       -4.98965000000000
H           -1.36352300000000       -1.07983300000000       -3.68217700000000
H           -0.33016500000000        1.15111800000000       -2.31680800000000
H            2.00133200000000        1.49663700000000       -3.16639000000000
H            0.62840700000000        1.96891900000000       -4.19720100000000
H            1.51195400000000        0.51705400000000       -4.65297500000000
H            2.43828200000000       -1.10563700000000       -3.18706300000000
H            0.65611300000000       -2.10579800000000       -4.42350900000000
H           -0.04621500000000       -2.82191100000000       -2.94178100000000
H            1.47442400000000       -3.47786600000000       -3.52195200000000
H            1.69710800000000       -2.95015400000000       -0.85961900000000
H            3.24346700000000       -1.93196900000000       -1.11536300000000
H            2.79187000000000       -3.23506300000000       -2.19594700000000
H            3.87090600000000       -1.63129000000000        4.26273300000000
H            5.79704400000000       -0.57596400000000        5.42636000000000
H            6.91405700000000        1.39126300000000        4.40775300000000
H            6.14487800000000        2.32032900000000        2.25594400000000
H            4.21003200000000        1.22278300000000        1.13428800000000
H           -0.81226300000000       -4.62720100000000        2.64953000000000
H            0.50876400000000       -6.47160700000000        1.69769600000000
H            0.68873500000000       -6.72089400000000       -0.76013400000000
H           -0.43720400000000       -5.13739000000000       -2.20170000000000
H           -1.77587600000000       -3.26386700000000       -1.28243700000000
H           -3.09693800000000       -4.13111100000000        2.67608300000000
H           -4.42702800000000       -2.47426500000000        3.80063700000000
H           -3.55338000000000        2.41666000000000        3.07475600000000
H           -2.30554900000000        1.09990800000000        3.35302500000000
H           -4.16075800000000        0.15373100000000        4.42548400000000
H           -5.29507000000000        0.45978700000000        3.03019300000000
H           -5.34060100000000        0.73776500000000        1.27501400000000
H           -4.49319800000000        0.89676700000000       -0.26163300000000
H           -4.86632400000000        3.09141700000000        1.89486700000000
H           -5.33047500000000        3.10152000000000        0.14506800000000
H           -3.46012000000000        5.07557200000000       -0.19178300000000
H           -1.22680700000000        5.23805900000000       -1.03505500000000
H           -0.12343200000000        4.39809700000000       -2.81000500000000
H            2.02384700000000        4.84086900000000       -3.83289100000000
H            4.07111700000000        4.18250600000000       -2.63457800000000
H            3.98101700000000        3.10582700000000       -0.45074000000000
H            1.76218600000000        2.64087300000000        0.62742500000000
88
 energy: -128.050987837259 gnorm: 0.743891232974 xtb: 6.7.1 (edcfbbe)
C           -0.87575312623146       -0.15101737628978       -3.93620991597092
C            0.13755454212704        0.34177106406123       -2.94020731926421
C            1.17541401491740        1.10402638944410       -3.77701495386468
N            0.72825035222979       -0.57393201916348       -2.04767536142728
C            1.60349576485997       -1.54400770643167       -2.53218141041370
C            0.88275156879643       -2.52464557548678       -3.44908822518450
C            2.35842505057416       -2.39966230490703       -1.55131355824740
P            0.29317399034459       -0.43497988492563       -0.41608910384826
Se           1.64883958385008       -0.94633298184174        0.52389389379817
S            2.70836465038295       -1.06875003866601        2.06647664963330
C            3.95364047201627       -0.23711557874838        2.63137089053011
C            4.37625083994500       -0.76963645473263        3.83821005004610
C            5.45621722240820       -0.17170393728556        4.48152604141853
C            6.07126330464811        0.92485551996424        3.90428202961678
C            5.65859721513342        1.45867949362614        2.70565807778500
C            4.58506362153491        0.85113454585141        2.08245602152037
O           -1.11514194437735       -1.36980037449357       -0.08158176800639
C           -2.06439283755463       -1.39201358113484        0.94327730779155
C           -2.17972649285908       -2.72682419137105        1.36106575720193
C           -1.40077002114419       -3.79540437834726        0.72889645121141
C           -0.75274000055199       -4.70615277797567        1.56214211491193
C           -0.00585749588597       -5.75089983190870        1.05592335537706
C            0.11656265038396       -5.91870945804010       -0.30504229555005
C           -0.52664652865910       -5.01527030573801       -1.12435671409061
C           -1.28150207717472       -3.95908386475374       -0.62355387569076
C           -3.01939951758734       -3.10920387955385        2.37222211827356
C           -3.77023608185634       -2.16251017458176        3.00187064557222
C           -3.67456040019702       -0.86449223322208        2.61424404512758
C           -2.83809307305499       -0.40495679920378        1.57260823154907
C           -3.13622698704854        0.98349262809908        1.42598435022107
C           -3.27970677407683        1.40378664203299        2.88354199914793
C           -4.27284088702455        0.33253695365081        3.31690917083982
C           -4.51494753314888        1.20376863623130        0.80905668413858
C           -4.60695179815927        2.72223579788054        0.91317799571973
C           -3.19429927223032        3.04823519101893        0.49431371023908
C           -2.79712030453670        4.21221937991666       -0.09273218305487
C           -1.53862044510127        4.32750761070636       -0.57924408035267
C           -0.67545441219236        3.27425239411225       -0.48252744378875
C            0.67473960773220        3.48176191702132       -1.00998874774891
C            0.75552864605045        4.09487205216930       -2.25116134107600
C            1.97263984978306        4.36160793331564       -2.86369093134156
C            3.11836941338534        3.97972055180103       -2.16382484314381
C            3.02694804029964        3.36881738849695       -0.92513040684698
C            1.81338575307388        3.11111192022205       -0.33056401069190
C           -1.05432466494869        2.06385017452696        0.11319878583821
C           -2.34692909272387        1.92510611304981        0.63555227592209
O            0.04743250465491        1.21269716136706        0.01724485728978
H           -1.71890014713056        0.60858117669142       -4.00614633131867
H           -0.48543857810372       -0.16986668795550       -4.98759542830616
H           -1.36333438898730       -1.08018015600909       -3.68210569322053
H           -0.32994838851406        1.14971956161379       -2.31715553287900
H            2.00094738821185        1.49602971971792       -3.16708295021990
H            0.62923514726550        1.96836887295354       -4.19686532606996
H            1.51230321340445        0.51752096704800       -4.65154743926232
H            2.43650023003808       -1.10518062078154       -3.18569882088241
H            0.65633641732937       -2.10628619007730       -4.42337300685942
H           -0.04601341947149       -2.82174554224302       -2.94239800333044
H            1.47335137675632       -3.47590962408410       -3.52289464289045
H            1.69774270643699       -2.94941780447607       -0.85972722111205
H            3.24300540833622       -1.93221710737800       -1.11485445193638
H            2.79164966735857       -3.23354287147241       -2.19459482320175
H            3.87105477883989       -1.63080002825017        4.26238661782974
H            5.79703257431149       -0.57573694159388        5.42606896331089
H            6.91380720010094        1.39107304964032        4.40779923676762
H            6.14467727994995        2.31987753723934        2.25624850630691
H            4.21003556527052        1.22301751940631        1.13409119997324
H           -0.81237887235272       -4.62682175256023        2.64888238142071
H            0.50820286066281       -6.47081930004259        1.69775915571494
H            0.68859336617716       -6.72068257486948       -0.75961642241984
H           -0.43738770033276       -5.13729358411907       -2.20140957408384
H           -1.77601358455981       -3.26413684883492       -1.28278224508565
H           -3.09684313635351       -4.13177287389292        2.67596754679173
H           -4.42714166380071       -2.47383326274837        3.80086712547434
H           -3.55305011465522        2.41726459471461        3.07526392657321
H           -2.30674673210798        1.10155981772218        3.35319738804996
H           -4.16189353408558        0.15414468709119        4.42395536449353
H           -5.29580633607906        0.46042841822888        3.03105396536201
H           -5.34168497985061        0.73652754486319        1.27527150942901
H           -4.49332219986463        0.89713717280812       -0.26065738208561
H           -4.86680234080000        3.09152259303744        1.89467261907177
H           -5.32962323700903        3.10158482663789        0.14649060413675
H           -3.46024628636079        5.07473122088823       -0.19153108790973
H           -1.22635479118621        5.23884583199919       -1.03534057296995
H           -0.12366866710219        4.39768018509897       -2.80943506448452
H            2.02389654619699        4.84066146407021       -3.83247901219297
H            4.07126930107775        4.18228442091357       -2.63412963239746
H            3.98008342374426        3.10588806990349       -0.45067426929332
H            1.76220875643255        2.64085176933780        0.62819280258916
88
 energy: -128.245955946155 gnorm: 0.245926704687 xtb: 6.7.1 (edcfbbe)
C           -0.89432681299514       -0.14270249941386       -3.94767701854767
C            0.13353863073959        0.36282491816741       -2.96155931179286
C            1.17795872459392        1.11319304079161       -3.78310743491797
N            0.70960622088081       -0.56258134397134       -2.06469190368712
C            1.61412852092685       -1.55458592744857       -2.54390601135555
C            0.87721480404912       -2.53596042334500       -3.44950878533665
C            2.37078563135482       -2.42467188183669       -1.56630525180350
P            0.08551523959867       -0.34782639132270       -0.53888429278338
Se           1.79102204986632       -1.04845865445304        0.56225944027351
S            2.76566670039552       -1.14418940862254        2.19622747051128
C            3.99558907913124       -0.20561169916876        2.66938360719432
C            4.39396743913417       -0.76281814586485        3.86069980175065
C            5.46347578810311       -0.17105120494902        4.48732824085769
C            6.07882541638736        0.92915195466537        3.90946662675678
C            5.66317489828669        1.46283880028963        2.70546210729414
C            4.59599500020029        0.86526365578900        2.07745988645820
O           -1.15902390741231       -1.35270930988099       -0.11048893693495
C           -2.06612096487361       -1.40112489178267        0.94580660803364
C           -2.17740070855765       -2.73479455126017        1.36125863603264
C           -1.39345845327719       -3.80049763952498        0.73451232178688
C           -0.74839808611999       -4.71218052699328        1.56821846002503
C           -0.00268149270535       -5.75516329358698        1.05744745261511
C            0.11579865851129       -5.91691710993893       -0.30918135752254
C           -0.52724047816106       -5.01450148001778       -1.13258644467407
C           -1.27834303250907       -3.96285236273543       -0.62855346319017
C           -3.02284625322490       -3.11372836771387        2.37344924275375
C           -3.77732054820125       -2.16443160978150        3.00930444311265
C           -3.67252676293692       -0.86484903523966        2.61928557400401
C           -2.83683057194152       -0.43003527798648        1.56993307390790
C           -3.13351659478166        0.98449310447854        1.41788619427731
C           -3.27315094778984        1.39253168419852        2.88792692226726
C           -4.26309224708425        0.32284171758165        3.33422051853767
C           -4.51818006407703        1.20775662571081        0.79812415600387
C           -4.60873957116817        2.72434682209721        0.89532740977666
C           -3.19821323222601        3.05487045286540        0.49019453325086
C           -2.80712421321005        4.22285952146049       -0.09318594421848
C           -1.53821737454819        4.33695295934052       -0.57990023444524
C           -0.67296555857814        3.28210284130245       -0.48258688548461
C            0.67300529008213        3.48226067090032       -1.01717625320301
C            0.75724210638374        4.09889381824024       -2.25873881002856
C            1.97494503810442        4.35992518946522       -2.85895939493573
C            3.12025815448548        3.98175701417280       -2.16856391224676
C            3.03656151845580        3.37001945248945       -0.92862762714685
C            1.81875979711825        3.11297924687076       -0.33526161756082
C           -1.05925449543725        2.08022097183988        0.11308549280197
C           -2.33963953347438        1.94375039204629        0.63086382914171
O            0.01056705855059        1.21435779618659        0.01538883232946
H           -1.71570052243581        0.60398500326747       -4.00589621560300
H           -0.48833013776318       -0.17714225479029       -4.97743704332240
H           -1.36215952178254       -1.08168583330175       -3.68212804296216
H           -0.33109299556282        1.14278658625951       -2.31941475554386
H            2.00050170293872        1.49231282219052       -3.17119073148615
H            0.63540273284866        1.96939966705169       -4.19736849261402
H            1.51734016134600        0.52000340339707       -4.64247335417069
H            2.42737947512628       -1.09904052894395       -3.17820421489761
H            0.65779698225086       -2.11159793011393       -4.42249478039799
H           -0.04805596004918       -2.82258311821848       -2.94584509621603
H            1.46749820813574       -3.46698829590550       -3.53198802490805
H            1.70531337462380       -2.94911771761256       -0.86451013080116
H            3.23887631514281       -1.93815923148970       -1.11285076345708
H            2.79732769116508       -3.23336299967230       -2.19186213216727
H            3.87453139152436       -1.62605409055073        4.26309963444985
H            5.79935984954401       -0.57414185030465        5.42779518290879
H            6.91517973765872        1.39184187482932        4.41080009886968
H            6.14541318052274        2.31948426723786        2.25836378203207
H            4.20993073935622        1.22522703281968        1.13256109049769
H           -0.81270109515753       -4.62432615607643        2.64737607045227
H            0.50569727754756       -6.46745166265555        1.69982071848204
H            0.68779801913409       -6.71948354030266       -0.75670172903847
H           -0.43887718841151       -5.13681762499963       -2.20344212205167
H           -1.77722360460716       -3.26727422241318       -1.28575882901303
H           -3.09671611582115       -4.13761308867923        2.67520119806460
H           -4.43073988132110       -2.47105946025752        3.80578692698461
H           -3.54866490946907        2.41552221813152        3.07896823592693
H           -2.31026102773057        1.11339973224901        3.35762911568543
H           -4.16992737876451        0.15524288812995        4.42216230175976
H           -5.29451570019592        0.46461825917248        3.04200507969979
H           -5.34645871115167        0.72909314518605        1.27317960619632
H           -4.49483219995206        0.89879070500813       -0.25900904300777
H           -4.87022165852889        3.09063113902612        1.88653618416665
H           -5.32772826664848        3.10544697452713        0.15118530380104
H           -3.46637095888796        5.07350843481574       -0.19043268523368
H           -1.22277213840917        5.24662243158969       -1.03797888500147
H           -0.12629378708433        4.39531497717063       -2.80736781164643
H            2.02495268093901        4.83863522814060       -3.82847355804165
H            4.07389770404428        4.18133553150412       -2.63227239497484
H            3.97695707590713        3.10582463051377       -0.44899586046406
H            1.76350059992920        2.64292203995899        0.63055517710457
88
 energy: -128.319019605295 gnorm: 0.162665559152 xtb: 6.7.1 (edcfbbe)
C           -0.92105525470141       -0.12779942374984       -3.94970182394841
C            0.12904983990084        0.38540607114085       -2.96698453514672
C            1.17716062491058        1.12973198406780       -3.78832228729936
N            0.69980034484642       -0.56028069828758       -2.03489003156349
C            1.61117170031124       -1.57316043850883       -2.55717890274358
C            0.85668700700805       -2.54833652979857       -3.45864797620202
C            2.39544140614198       -2.47731512520005       -1.61802129711577
P            0.06930580154025       -0.35321761809031       -0.51079230605114
Se           1.79821796260500       -1.09328452338597        0.57870115611027
S            2.68388019292082       -1.20029900948422        2.29141373084774
C            3.99340873941999       -0.17652516268128        2.71362054806645
C            4.42578383521197       -0.73867300371927        3.90266272958893
C            5.50047993409938       -0.16069954646202        4.50878812819732
C            6.10374339211515        0.94200640876694        3.92049621822578
C            5.67551683444492        1.46501838266832        2.70977586011940
C            4.59941187955510        0.87725856588520        2.07698732382450
O           -1.18979496546578       -1.28858455952635       -0.15512821867519
C           -2.08250944255373       -1.41259262253988        0.92490840915670
C           -2.17586984918035       -2.75008442187649        1.35142447798055
C           -1.37693984233889       -3.81160345939520        0.73614152695708
C           -0.73789368435780       -4.72263914382336        1.57369500568155
C            0.00420238990975       -5.76297196875593        1.05580183731461
C            0.11662535380028       -5.91602325778450       -0.31623137617435
C           -0.52547817585911       -5.01735234348344       -1.14785820994411
C           -1.27036073968761       -3.97151059882856       -0.63611809528569
C           -3.02822815369616       -3.12542772689065        2.37169031890118
C           -3.78516312518610       -2.17595098022010        3.02231295759602
C           -3.66598921066417       -0.87424659370159        2.63565164115030
C           -2.84608259600995       -0.46036821366468        1.56275208269049
C           -3.13243593785664        0.98282462441077        1.40720240153139
C           -3.25955128312122        1.37435997258143        2.89536411919633
C           -4.24167565251020        0.30625389143839        3.36785532112916
C           -4.52337429925036        1.21224719426021        0.77865071141940
C           -4.61632879967834        2.72974705925466        0.85952233593854
C           -3.20870156323992        3.07650663211393        0.47645177116856
C           -2.82013251862211        4.25120512794560       -0.09836389981436
C           -1.53681421249258        4.36531022473571       -0.57718833273971
C           -0.66987197064035        3.30061365756460       -0.48552376546463
C            0.67505220125626        3.48429582802767       -1.03131745194756
C            0.76155092735128        4.10505307026638       -2.27123262362120
C            1.98397376678099        4.35972220460731       -2.85569564952429
C            3.13147432227073        3.98440316782308       -2.17575970558797
C            3.05181087683624        3.37205421984884       -0.93601951607449
C            1.82821214576348        3.11648834063457       -0.34846700630740
C           -1.07254535836833        2.09352919993698        0.09927938360467
C           -2.34088243592389        1.97479081955714        0.62614406981476
O           -0.04176972313699        1.16259620031342        0.02181618950090
H           -1.72711541667633        0.60313991117246       -4.01077725886205
H           -0.50077407414487       -0.19872158856609       -4.95803948051484
H           -1.36291508108893       -1.07915278699489       -3.67431206230799
H           -0.34432001549387        1.14709671846275       -2.32718949963525
H            2.00182233528605        1.48644762472976       -3.17726042108370
H            0.65638603971117        1.98631344865308       -4.20952201431553
H            1.53423203277359        0.52479515602627       -4.62199878140538
H            2.39310404841395       -1.07281236634781       -3.16547922529485
H            0.64871561071980       -2.12233025471158       -4.42983023819145
H           -0.06376806257221       -2.83119134508908       -2.95738842479837
H            1.44866995835364       -3.45587583548652       -3.56955699655627
H            1.73155357253506       -2.96898286735419       -0.89859564678936
H            3.23600716296593       -1.97223162555916       -1.13475466102070
H            2.82940577788997       -3.26293336627111       -2.21865401660416
H            3.90033534723833       -1.60519035521675        4.28711207754284
H            5.83126187408130       -0.56293166064211        5.44693928181354
H            6.93342227848663        1.40497917761923        4.42018518057363
H            6.15478322178948        2.31963957644777        2.26336355134232
H            4.20864267750607        1.22963897163097        1.13190197854668
H           -0.80950904145243       -4.61998149549269        2.64686951348892
H            0.50416776498900       -6.46598986266028        1.70469333197810
H            0.68832012228163       -6.72020449142107       -0.75265185617477
H           -0.44323937938261       -5.13914567830605       -2.21585137915322
H           -1.78212195503303       -3.28196501589467       -1.29230003126658
H           -3.09642318660570       -4.15364604706528        2.67008373296273
H           -4.43878251747359       -2.47019777101008        3.82235613651861
H           -3.53536964562622        2.40182536357650        3.09065743098630
H           -2.30354219706790        1.14193844825545        3.37404465156520
H           -4.18143235834617        0.15212029620718        4.44123017522675
H           -5.27920701936915        0.47492871362877        3.08436858107428
H           -5.35104365960161        0.71481310512406        1.25691760765379
H           -4.49920864856247        0.90112309218165       -0.26761470531854
H           -4.88364608334631        3.08868480752276        1.85508096756332
H           -5.33322351923768        3.12499383961093        0.14426231876427
H           -3.48862885181791        5.08533516764249       -0.19263123125592
H           -1.21383813735189        5.27407328543812       -1.04005358329156
H           -0.13151527218684        4.39105370332120       -2.80695119266110
H            2.03309319822736        4.83693187415462       -3.82272707255283
H            4.08799019849899        4.18050516370807       -2.63008668234203
H            3.97640617927072        3.10567064227969       -0.44266018210568
H            1.76879303695944        2.65495944870596        0.62715188142019
88
 energy: -128.367190401056 gnorm: 0.090759731559 xtb: 6.7.1 (edcfbbe)
C           -0.94462235499687       -0.11886841296805       -3.95099330948517
C            0.11999369703045        0.40790974345268       -2.97065007030370
C            1.17818632610292        1.13950170889796       -3.78882582776889
N            0.67933755955508       -0.55922563082833       -2.00151441831410
C            1.60207903931863       -1.59170830746125       -2.57333458937346
C            0.83329200169641       -2.55703559568956       -3.47387174129264
C            2.41331251346846       -2.51509841953068       -1.65960860327915
P            0.06197012791463       -0.36235213120374       -0.47084624901153
Se           1.87057176006081       -1.09771490130281        0.56457383703428
S            2.58714199703693       -1.22655389620984        2.42232892583225
C            3.98102936048242       -0.17228107947619        2.76451058227445
C            4.45127651814902       -0.71900635556067        3.94757471306853
C            5.53544721974664       -0.14373524738916        4.53857316979874
C            6.12725467262443        0.95676563574201        3.93246460792902
C            5.67623563596726        1.45470915178463        2.71884671984163
C            4.58700461250752        0.86563445359155        2.08700164183995
O           -1.23100184728433       -1.20762778999746       -0.21086775042487
C           -2.09763521428202       -1.42700883538405        0.90634408539564
C           -2.17176616683606       -2.76680109196196        1.33978667670816
C           -1.35938332963176       -3.82388240336326        0.73688146315704
C           -0.72367922817391       -4.73308114012956        1.57746221214407
C            0.01518650606661       -5.77161580818142        1.05085316085024
C            0.11948041359247       -5.91576945371506       -0.32382622547814
C           -0.52135253422559       -5.02064143032598       -1.16322524108481
C           -1.26054119470896       -3.97850408495212       -0.64241723495932
C           -3.03029645398174       -3.13570621894847        2.36636281760936
C           -3.78878304366123       -2.19024482351723        3.03288884075740