80
 energy: -112.327241780910 gnorm: 0.133669306770 xtb: 6.7.1 (edcfbbe)
C           -4.05128800000000       -2.67424100000000       -1.25935600000000
C           -3.77467700000000       -1.80711500000000       -0.02630500000000
C           -4.51537400000000       -0.46847000000000       -0.08487300000000
N           -2.32336300000000       -1.73345100000000        0.30744000000000
C           -2.00870900000000       -2.48562300000000        1.58263700000000
C           -2.60009900000000       -3.93082200000000        1.58292900000000
C           -0.51384000000000       -2.72668100000000        1.89325200000000
C           -2.59719900000000       -1.72356300000000        2.79248200000000
P           -1.25838600000000       -0.78922600000000       -0.56694400000000
S           -2.00869700000000       -0.13282500000000       -2.44903100000000
S           -0.61084400000000        1.18126100000000       -3.17331900000000
C           -1.09363700000000        2.75707200000000       -2.50481600000000
C           -2.35879500000000        3.30142200000000       -2.75204900000000
C           -2.70442800000000        4.55035100000000       -2.23049500000000
C           -1.78349100000000        5.26720500000000       -1.46793900000000
C           -0.51583700000000        4.73898200000000       -1.23017600000000
C           -0.17103600000000        3.49020000000000       -1.75126700000000
N           -0.77647200000000        0.48460800000000        0.35638300000000
C           -1.81643000000000        1.46632800000000        0.64334100000000
C            0.33925400000000        0.51532800000000        1.23515800000000
C            0.16678400000000        0.92824300000000        2.57531100000000
C            1.20066600000000        0.90450200000000        3.50434300000000
C            2.45226800000000        0.42779200000000        3.14358500000000
C            3.46280900000000        0.34185100000000        4.11803700000000
C            4.71900200000000       -0.16867000000000        3.80668500000000
C            4.97228200000000       -0.60962400000000        2.51874500000000
C            3.97312400000000       -0.51899000000000        1.54486700000000
C            2.68718200000000        0.02723700000000        1.80579400000000
C            1.64501700000000        0.15046600000000        0.80329500000000
C            1.94553400000000       -0.01990100000000       -0.58751000000000
C            1.27601000000000       -1.00624500000000       -1.36247800000000
C            1.77323000000000       -1.30841600000000       -2.64866200000000
C            2.84039500000000       -0.61749900000000       -3.21281000000000
C            3.43300200000000        0.43570900000000       -2.53050600000000
C            4.45706700000000        1.17045600000000       -3.15419500000000
C            5.04864400000000        2.25875200000000       -2.52063500000000
C            4.61371500000000        2.62911200000000       -1.25928000000000
C            3.60093100000000        1.89747800000000       -0.63213700000000
C            2.98855400000000        0.76045900000000       -1.22617500000000
N            0.12076000000000       -1.67223500000000       -0.84199900000000
C           -0.16159100000000       -2.96221800000000       -1.48113100000000
H           -3.74188300000000       -2.21190800000000       -2.19573600000000
H           -5.12605400000000       -2.87361300000000       -1.34362300000000
H           -3.55134300000000       -3.64503000000000       -1.18376900000000
H           -4.31408000000000       -2.31300200000000        0.77735400000000
H           -4.22093100000000        0.16542100000000       -0.91875800000000
H           -5.59266700000000       -0.64362800000000       -0.19305600000000
H           -4.38191100000000        0.09183100000000        0.84499700000000
H           -2.25244100000000       -4.49676400000000        2.45684600000000
H           -2.28226900000000       -4.48879100000000        0.69595500000000
H           -3.69132400000000       -3.96662300000000        1.63586500000000
H            0.05250000000000       -1.81081800000000        1.98900400000000
H           -0.39465100000000       -3.23831600000000        2.85788400000000
H           -0.02787300000000       -3.36967100000000        1.15650200000000
H           -2.37261500000000       -2.24248100000000        3.73220100000000
H           -2.18103300000000       -0.71777100000000        2.87282200000000
H           -3.68629300000000       -1.62795200000000        2.74308700000000
H           -3.08225600000000        2.75834700000000       -3.35513500000000
H           -3.68970000000000        4.96537100000000       -2.42606000000000
H           -2.05059100000000        6.24081700000000       -1.06521600000000
H            0.20774100000000        5.29600600000000       -0.64079500000000
H            0.82034000000000        3.08677000000000       -1.55607900000000
H           -2.47796200000000        1.62002800000000       -0.21032700000000
H           -2.44649700000000        1.15016000000000        1.47931500000000
H           -1.39114600000000        2.44925300000000        0.87708700000000
H           -0.80458100000000        1.24369900000000        2.94305900000000
H            0.99519400000000        1.22040900000000        4.52418700000000
H            3.27177300000000        0.66447100000000        5.13945500000000
H            5.48834300000000       -0.23483700000000        4.57048000000000
H            5.94085600000000       -1.02958100000000        2.26170300000000
H            4.21207700000000       -0.90333400000000        0.55438000000000
H            1.30949700000000       -2.06394800000000       -3.27442100000000
H            3.16312900000000       -0.88456100000000       -4.21629000000000
H            4.79495200000000        0.90405000000000       -4.15364700000000
H            5.83461000000000        2.82029400000000       -3.01725400000000
H            5.05286200000000        3.48627100000000       -0.75639200000000
H            3.27655000000000        2.24283800000000        0.34817600000000
H           -0.90815800000000       -3.53235500000000       -0.92547100000000
H            0.73339900000000       -3.59530900000000       -1.50811700000000
H           -0.55759900000000       -2.84474500000000       -2.49559700000000
80
 energy: -112.347490736739 gnorm: 0.058141279222 xtb: 6.7.1 (edcfbbe)
C           -4.04316489929514       -2.66785241867160       -1.26883346106826
C           -3.77804281353964       -1.81863730748798       -0.02533941514422
C           -4.49894344214431       -0.46921589156184       -0.09356891529495
N           -2.33292030305298       -1.75805901156199        0.32990745055980
C           -2.01033145947219       -2.50233006280728        1.60413915320243
C           -2.60929058189951       -3.92752336098818        1.57132098555657
C           -0.51023180463636       -2.70265494728674        1.87690000039853
C           -2.60104098910204       -1.72214826987408        2.78957792218914
P           -1.23710267861665       -0.81620628013672       -0.51347720421087
S           -2.05167954012063       -0.10565606205588       -2.38320574540190
S           -0.61220063256642        1.16797170912805       -3.11962450589793
C           -1.09921626937204        2.76341705890409       -2.48773897781119
C           -2.35665316863305        3.29966484341732       -2.74753234864799
C           -2.69649957350111        4.54138636699537       -2.23145155541933
C           -1.77966480180863        5.25649658890532       -1.47350745082616
C           -0.51765616455764        4.73107334904693       -1.23592912063858
C           -0.17520862697822        3.48511683275733       -1.74016145639954
N           -0.75380646470899        0.49865728802865        0.36916679392789
C           -1.80844456714239        1.47201567283105        0.64255887716085
C            0.36426254999368        0.51840268336436        1.24840723114907
C            0.16397532242466        0.91478287208454        2.58318217339172
C            1.18419825738814        0.90258962403643        3.50036968563461
C            2.45256196507099        0.42985988496416        3.14542789692312
C            3.46834476146937        0.33896416230900        4.11559422003331
C            4.70600995057629       -0.16541041016053        3.79666307418959
C            4.94867597484600       -0.60561971075040        2.49627627071609
C            3.96950889296547       -0.50936396566258        1.52620890988932
C            2.69425190953233        0.03595636872910        1.80103668674109
C            1.64950984063931        0.16257140697669        0.81607699334394
C            1.95372868695683       -0.02770432467045       -0.59762461487704
C            1.28156870191993       -0.98790079479309       -1.37025129464164
C            1.75303911925421       -1.28946738685218       -2.66094816491890
C            2.81842892529573       -0.62310724429331       -3.21460629912260
C            3.43037540999540        0.43434411434345       -2.53248399469599
C            4.45659928212099        1.17441245055176       -3.15019263791326
C            5.03586982194607        2.24632717546311       -2.51475142402030
C            4.58864442618953        2.60933395715859       -1.24513864446944
C            3.59391498019477        1.88524702676528       -0.61584203467175
C            2.99238538665092        0.75550188953805       -1.21914911121787
N            0.14581349549977       -1.68750820269870       -0.83440264204235
C           -0.15682614558190       -2.96776714668450       -1.47977391799758
H           -3.72073364430531       -2.18620945288911       -2.19045600269131
H           -5.11382734023423       -2.86015989600519       -1.34818032663265
H           -3.54477004632770       -3.63279058765263       -1.18647257726363
H           -4.27824894795327       -2.33360567107152        0.79601375314542
H           -4.19508329889856        0.15343825460242       -0.93143027357680
H           -5.56915835655398       -0.65457212486386       -0.20175716513782
H           -4.36680015361221        0.08653189689340        0.83436860744960
H           -2.24789344168776       -4.47186498713351        2.44383052094692
H           -2.28569280806458       -4.47741304318341        0.68895326302803
H           -3.69542765738967       -3.95340322531413        1.62039047726713
H            0.04745727061088       -1.77613233374156        1.95940362783126
H           -0.41291327418339       -3.21191161719136        2.83854954965649
H           -0.03532270646005       -3.34683625158955        1.14110927679250
H           -2.37140197000399       -2.24518628101221        3.71688845867289
H           -2.17098670089711       -0.72468355195377        2.85927298627975
H           -3.68458122736946       -1.62803144138607        2.72932395092850
H           -3.07322580495777        2.75172584516369       -3.34613877465299
H           -3.67651906744392        4.95375835761983       -2.42817798463468
H           -2.04658376027765        6.22553104199739       -1.07321417828867
H            0.20293691199523        5.28710415092851       -0.65227712003164
H            0.81257465449512        3.08055841664611       -1.55756842145152
H           -2.45632939301775        1.60332744203356       -0.22674927941930
H           -2.44239446747855        1.16388325061682        1.47871995331834
H           -1.37143223956608        2.44574689242206        0.87137713788727
H           -0.80582346775910        1.24412313873387        2.92714614697246
H            0.98758709182577        1.22966265484491        4.51176572713071
H            3.26885126438683        0.65965575337699        5.12939157346978
H            5.47651495599681       -0.23286332376545        4.55362753995165
H            5.91182452412176       -1.02805367222035        2.24304522732631
H            4.19714178368446       -0.88722623928032        0.53796928193939
H            1.29678365743094       -2.06304184088712       -3.26042757904306
H            3.15625267670324       -0.89873659397052       -4.20404132891720
H            4.78605726582604        0.90382700076494       -4.14450216055701
H            5.82066451292264        2.80877395739342       -3.00396171250952
H            5.02428279282724        3.46544158628452       -0.74704690122277
H            3.26673149252274        2.21896996397313        0.36067955314118
H           -0.90740156674319       -3.51186432103624       -0.90495545830630
H            0.74554396639894       -3.57997586018949       -1.51298991130748
H           -0.55139421476377       -2.84746081525897       -2.49394684514872
80
 energy: -112.354425692207 gnorm: 0.015716017511 xtb: 6.7.1 (edcfbbe)
C           -4.03030979244353       -2.65892956336940       -1.28209313853203
C           -3.78036404447603       -1.82194138412517       -0.03208819988123
C           -4.48807025794664       -0.47017020966704       -0.10033220057315
N           -2.34152384452758       -1.77029824458226        0.33865030367230
C           -2.01676060681000       -2.50886397141052        1.61245470867815
C           -2.60016174929697       -3.92913351222538        1.57766422816192
C           -0.51626802192296       -2.67965105856618        1.86339177611702
C           -2.60276539482545       -1.72879842574260        2.79224515955215
P           -1.22202031046746       -0.83027464137940       -0.46918393015249
S           -2.05761801811173       -0.10595937034023       -2.31757040928552
S           -0.61382593599223        1.14299506792266       -3.05948933681305
C           -1.10242511237328        2.75748592531678       -2.46023367174252
C           -2.35515058249654        3.28491901579715       -2.73507353070341
C           -2.68937569925425        4.52900605751572       -2.23225016682538
C           -1.77499642770403        5.24649215979359       -1.47805334622936
C           -0.51479670311957        4.72497508068882       -1.23792613053030
C           -0.17255450160176        3.47701668343715       -1.72642002569534
N           -0.73177066224409        0.52405826821312        0.36766444002984
C           -1.79512071129784        1.48913758095274        0.63642695751696
C            0.38186762447906        0.52421333546977        1.25610015297378
C            0.15998491146316        0.91176253581099        2.59021927935508
C            1.17241532466466        0.90368751125783        3.49912679316129
C            2.45036074485941        0.43329644405867        3.14411955864176
C            3.47300982378278        0.33653188704652        4.10822469776293
C            4.69775775998916       -0.16419161130559        3.77774590930011
C            4.93058611655020       -0.59980081169301        2.46555148373395
C            3.96271745224770       -0.49783301200758        1.50238047095557
C            2.69342026753422        0.04407841845463        1.79603059128062
C            1.64662675788501        0.17240028900279        0.82552222317292
C            1.95110367346441       -0.03543160245665       -0.60592245349630
C            1.28212056181904       -0.97518738112044       -1.37217653101805
C            1.73495006646150       -1.28166805850193       -2.66818004926924
C            2.79600665995690       -0.62765668664151       -3.21632946000269
C            3.42039140755793        0.43123762731015       -2.53252272082689
C            4.45084084405480        1.17552982561710       -3.14165906664770
C            5.02039664429516        2.23528225728624       -2.49909380008742
C            4.56414654357336        2.58879842252296       -1.22124709777362
C            3.58183802139566        1.86869105936733       -0.59494381377266
C            2.98520499042688        0.74873747950073       -1.21490412166726
N            0.15929364179596       -1.69636073709641       -0.82952752401499
C           -0.15220939302647       -2.97308833646591       -1.47651974336839
H           -3.69146286428625       -2.15423259023953       -2.18411074830583
H           -5.09788127434768       -2.84239796319743       -1.37089875225704
H           -3.53271751301061       -3.62085538537053       -1.20240311721249
H           -4.25901400680426       -2.34099754011129        0.79692547298224
H           -4.17018693273048        0.13387165014555       -0.94358924752611
H           -5.55342298426212       -0.65862247551394       -0.21307253528797
H           -4.34911784294144        0.08609149410014        0.82280431396047
H           -2.23444831397775       -4.47248176580172        2.44349818685306
H           -2.27868008770867       -4.46407403639113        0.68942641903135
H           -3.68258763502041       -3.95527603843588        1.62204088804612
H            0.01996516413866       -1.73629319197167        1.91917930220227
H           -0.40577554648302       -3.17389414627623        2.82697381862711
H           -0.04523428494326       -3.31781563527692        1.12457980455685
H           -2.37712888112307       -2.24883341663172        3.71796409086010
H           -2.15940548267710       -0.73840321100671        2.84792576802069
H           -3.68125412187077       -1.62703264641072        2.71955780144021
H           -3.06335849382942        2.73008515511590       -3.33231411828454
H           -3.66540831433459        4.94077971571376       -2.43451361997812
H           -2.04242147719165        6.21440059292664       -1.08403530327670
H            0.20418433898832        5.28510232353536       -0.66155761926546
H            0.80912463226657        3.06541561786331       -1.54667198130924
H           -2.42607765875493        1.60043235944779       -0.24656447699556
H           -2.43628004076850        1.18639402627778        1.46876090727903
H           -1.34841475637277        2.45546909465609        0.86207211714341
H           -0.81381078478368        1.23980728821856        2.91302148855672
H            0.98919655598329        1.23210587011889        4.50943857475499
H            3.26377337022062        0.65494144943673        5.11784062469573
H            5.47335210901980       -0.23798150260589        4.52475068433993
H            5.88913794326184       -1.02800868772088        2.21613036658498
H            4.17587329269296       -0.86113210426525        0.50931266114220
H            1.26384548709383       -2.05260714452025       -3.25270571142335
H            3.14735872170697       -0.90204676855555       -4.19806803502555
H            4.77151920416414        0.90012030451855       -4.13448277349650
H            5.80367811252862        2.80401782248754       -2.97717657548823
H            4.99457809872039        3.44742866339280       -0.72858318055323
H            3.25051831664300        2.18365890294093        0.38274152254139
H           -0.90620061489412       -3.49340559295824       -0.88798921421645
H            0.75329152325350       -3.57540876689511       -1.51111131775253
H           -0.54605702588404       -2.85341903438650       -2.49006275112154
80
 energy: -112.356744660563 gnorm: 0.014406285352 xtb: 6.7.1 (edcfbbe)
C           -4.01220342939380       -2.64749317734041       -1.29661526070079
C           -3.77781037208172       -1.82898965078202       -0.03184323898251
C           -4.47886741836425       -0.47581092647720       -0.10533407424120
N           -2.34205718199221       -1.77533534864582        0.34449149011972
C           -2.01729518627711       -2.50850938499085        1.61764269023326
C           -2.59116802827374       -3.93151310387655        1.57930276490306
C           -0.51342667290060       -2.65185849428982        1.85404349096672
C           -2.60686853257592       -1.72806024165411        2.79469722549378
P           -1.22182637246368       -0.83312300493290       -0.44830764843815
S           -2.07361519141588       -0.11332623759391       -2.28257880462557
S           -0.60252524708849        1.11178699983997       -3.00720501595900
C           -1.09747058444261        2.73564877877246       -2.42835108882248
C           -2.34884751026418        3.25817926026243       -2.71762390128258
C           -2.68225797840991        4.51079225941878       -2.23227393534749
C           -1.76860797291381        5.23679261383966       -1.48454253391685
C           -0.50811929787570        4.71911880213357       -1.23545461219887
C           -0.16589203950753        3.46264784951038       -1.70466646081594
N           -0.72462540397522        0.54167779396149        0.35915877221267
C           -1.78402933292678        1.51019423329639        0.62415186969765
C            0.38011543551389        0.52846277706000        1.25964200978011
C            0.15454941584648        0.91385648988287        2.59615371646491
C            1.16977329744938        0.90305237838716        3.50179578855844
C            2.44801293724526        0.43352295929867        3.14006224745594
C            3.47728489191297        0.33306833857776        4.09756396780379
C            4.69895755223067       -0.16837478981522        3.75567169640314
C            4.92594743421474       -0.59815145399695        2.43845257315684
C            3.95524225625542       -0.48990413892537        1.48163686209659
C            2.68715844161345        0.04678450880759        1.79205713456686
C            1.63812446820018        0.17331904279243        0.82836475055232
C            1.93935656425201       -0.04053995107059       -0.60692894477167
C            1.27111532674775       -0.97434529235358       -1.37097037054895
C            1.71450688570135       -1.27747940035085       -2.67340291352124
C            2.77812987353739       -0.62564979750315       -3.21841649471237
C            3.40678049940678        0.42896191830191       -2.52895697344185
C            4.44003339180085        1.17639071163735       -3.13057236227237
C            5.00597890583658        2.23251389224192       -2.47843113807605
C            4.54683406815574        2.57953297111033       -1.19768920389931
C            3.56672342397494        1.85556207011080       -0.57726518415426
C            2.97214769709387        0.74230597654254       -1.21185226295541
N            0.15491735328988       -1.69993530489691       -0.82514578912012
C           -0.15543356853292       -2.97847853069730       -1.46826393426408
H           -3.65725044257527       -2.12528553633438       -2.18297827458269
H           -5.07867969680686       -2.82556175624915       -1.40679484531793
H           -3.51649510875855       -3.61077145653833       -1.22648946841898
H           -4.25741035112715       -2.35594830511638        0.79085640778227
H           -4.15271892883229        0.11839089500921       -0.95189987066094
H           -5.54431029978676       -0.65739201892037       -0.22150498691448
H           -4.33500475017979        0.08497540204080        0.81362633674652
H           -2.21931154707517       -4.47582466283770        2.44181324517794
H           -2.26906176704731       -4.46025754703911        0.68674222773029
H           -3.67423910683355       -3.96416963002732        1.62537779738725
H            0.00173933998962       -1.69380497919896        1.88417721214902
H           -0.37827583383479       -3.12666208333069        2.82384854308288
H           -0.04124728057852       -3.28937010212035        1.11561900914777
H           -2.38928264121756       -2.24961628201651        3.72148731318983
H           -2.15608422288163       -0.74090343928581        2.84992006775023
H           -3.68438444615093       -1.61963904511346        2.71525229233632
H           -3.05338548898553        2.69402763236369       -3.31025828830522
H           -3.65650462243066        4.92285768067376       -2.44399270853774
H           -2.03720825953545        6.20893089540670       -1.10208866063038
H            0.21101569121090        5.28916876593389       -0.66844705286669
H            0.81382588480603        3.04881276368154       -1.52200228658040
H           -2.40505207411114        1.61927210427427       -0.26408800183640
H           -2.43174984546035        1.21516965907812        1.45384932865883
H           -1.32904228759471        2.47289958874101        0.84835330726356
H           -0.82221072420555        1.23939888983210        2.91069182376212
H            0.99672662970261        1.22905209643474        4.51525646989846
H            3.26747693567835        0.64951591602373        5.10803959502647
H            5.48165554886371       -0.24761467721721        4.49390110330387
H            5.88376864865810       -1.02549008876755        2.18569604528168
H            4.15628712907798       -0.83896965200242        0.48046414479005
H            1.22989756445965       -2.04152195403720       -3.25499002647449
H            3.13421494247536       -0.89406807366480       -4.20036169903902
H            4.75933221236091        0.90095746266096       -4.12421394946590
H            5.79123481026894        2.80629085049157       -2.94581105853340
H            4.97766929192758        3.43593657284346       -0.70208331993850
H            3.23167991521040        2.15351124283385        0.40484629459113
H           -0.90862771486045       -3.49239060568419       -0.87603069971872
H            0.75161112692577       -3.57895628333612       -1.50133956072156
H           -0.54933902934837       -2.86224763507949       -2.48182870991024
80
 energy: -112.358354020376 gnorm: 0.011544403377 xtb: 6.7.1 (edcfbbe)
C           -3.98967663724829       -2.63643385317367       -1.31634888564148
C           -3.77521934417308       -1.83651991214041       -0.03596086497549
C           -4.47454088324243       -0.48321266110904       -0.10413134194537
N           -2.34304151266865       -1.78068783823029        0.34872063061518
C           -2.01720000509419       -2.50516902844708        1.62287702148445
C           -2.57283531594615       -3.93554337476163        1.58576201350201
C           -0.51140084760596       -2.61980845242248        1.85235730901876
C           -2.61420598844744       -1.72720156932588        2.79815250384264
P           -1.22953769819475       -0.83260254643761       -0.43093535228627
S           -2.04961834614856       -0.12639593896716       -2.27037835093906
S           -0.57149893187552        1.09480415762347       -2.97857399929191
C           -1.08135387143102        2.71300657221146       -2.39791205040343
C           -2.33552826599359        3.22343819417143       -2.69447742224930
C           -2.67200700583222        4.48353715062040       -2.22847955029216
C           -1.75922061408124        5.22324665148207       -1.49224290078880
C           -0.49813792284228        4.71198238308506       -1.23013810828461
C           -0.15244954996618        3.44849121137029       -1.67962869277105
N           -0.72287856570079        0.55966971454405        0.34689419828926
C           -1.77251218995234        1.53856954921255        0.60645607756850
C            0.37038497485521        0.53232231852793        1.26246678102742
C            0.14813674915125        0.91593218237186        2.60183766024049
C            1.16863278896794        0.89757320822303        3.50358747011519
C            2.44480350781182        0.42745731138817        3.13313813289918
C            3.48310179205202        0.32501877049368        4.08160013809703
C            4.70269039146049       -0.17528677922188        3.72578166233128
C            4.92370060206340       -0.59758596212336        2.40492214560261
C            3.94473276876369       -0.48660278221233        1.45724549602817
C            2.67751185820292        0.04299830147506        1.78588785549539
C            1.62496346796301        0.16968922686962        0.82883361714936
C            1.92046153506529       -0.04474747394683       -0.60639573416377
C            1.25168700369686       -0.97530673023996       -1.37120163397993
C            1.68895819989028       -1.27059346167940       -2.67952114841094
C            2.75441001659612       -0.61724031774274       -3.22124732970501
C            3.38659705678593        0.43045935019687       -2.52377351695294
C            4.42382584881218        1.18064052616220       -3.11561441741168
C            4.98812400542646        2.23160435069121       -2.45134425478835
C            4.52781831274220        2.57165250069393       -1.16898502103689
C            3.54504861611292        1.84404863865586       -0.55800627386656
C            2.95256029611511        0.73795574105515       -1.20785460443438
N            0.14071079142666       -1.70076369283120       -0.82309635172285
C           -0.16556189522227       -2.98460308800490       -1.45627441297264
H           -3.61723309681285       -2.09829980086547       -2.18568417608851
H           -5.05463246183846       -2.80854891594919       -1.45333467318536
H           -3.49637528157994       -3.60210802468372       -1.25696952700270
H           -4.26004542470408       -2.37670913971221        0.77504449744146
H           -4.14816350235488        0.10613577959213       -0.95288694150544
H           -5.54115075279269       -0.65775524969920       -0.21881358366681
H           -4.32252006862080        0.08110422158002        0.81153704300677
H           -2.18802927480009       -4.47950025835546        2.44385858808064
H           -2.25167101978767       -4.45716625590117        0.68761928445052
H           -3.65623943382586       -3.98040487063396        1.63910608445799
H           -0.01990968942251       -1.64791238463401        1.85276322476200
H           -0.34946158504530       -3.06707910790251        2.83210317029929
H           -0.03424792536743       -3.26160070441083        1.12058143079594
H           -2.40855997981137       -2.25266647972650        3.72630246045234
H           -2.15752736747070       -0.74273345107368        2.85902845168198
H           -3.69084039743346       -1.61188710004065        2.70912028033844
H           -3.03707619441276        2.64571997795153       -3.27828474160143
H           -3.64529620162198        4.89313115351663       -2.45165633348283