87
 energy: -122.339792556196 gnorm: 0.863906813087 xtb: 6.7.1 (edcfbbe)
C            8.79776200000000        2.35958600000000       -0.31032700000000
O            7.75034800000000        2.25925800000000        0.61682800000000
C            6.44765200000000        1.95563200000000        0.25060400000000
C            6.05684800000000        1.72434800000000       -1.05143800000000
C            4.74473700000000        1.42433300000000       -1.37092200000000
C            4.37409100000000        1.18249100000000       -2.79817100000000
C            3.78303300000000        1.34743300000000       -0.38950700000000
S            2.11630600000000        0.95639900000000       -0.87744000000000
Se           1.72339800000000       -0.67214600000000       -0.91639100000000
P           -0.12950600000000       -1.42263300000000       -0.38186100000000
N           -0.00461700000000       -3.08409000000000       -0.25595200000000
C           -1.13229400000000       -3.83774100000000        0.13696000000000
C           -2.14956600000000       -3.14104500000000        1.00152600000000
C           -0.66283400000000       -5.13344200000000        0.82304600000000
C            0.84445100000000       -3.83875200000000       -1.10521900000000
C            0.20901900000000       -4.22294800000000       -2.42166100000000
C            2.26006800000000       -3.40156100000000       -1.24374900000000
N           -0.35243100000000       -0.71285700000000        1.22462600000000
C            0.20648000000000       -1.37649600000000        2.36988000000000
C           -1.01479400000000        0.52530100000000        1.53293500000000
C           -0.42685800000000        1.19839700000000        2.60532000000000
C           -0.86467500000000        2.48192500000000        2.84658600000000
C           -1.83806600000000        3.11867800000000        2.08088500000000
C           -2.15443100000000        4.43673300000000        2.30440900000000
C           -3.03685300000000        5.03155800000000        1.43799300000000
C           -3.62725500000000        4.41792900000000        0.36356500000000
C           -3.31246700000000        3.09714300000000        0.14315900000000
C           -2.43869200000000        2.44156200000000        0.99206500000000
C           -1.98063800000000        1.15056800000000        0.79520300000000
C           -2.88793500000000        0.48508200000000       -0.19492400000000
C           -2.49512700000000       -0.17034900000000       -1.33632600000000
C           -3.42565400000000       -0.51513900000000       -2.29336800000000
C           -4.74123100000000       -0.18525300000000       -2.04769600000000
C           -5.15276800000000        0.46812400000000       -0.88004100000000
C           -6.48665400000000        0.67993600000000       -0.62853100000000
C           -6.82223100000000        1.22025500000000        0.58806000000000
C           -5.93451800000000        1.56276500000000        1.57435900000000
C           -4.59910400000000        1.35349400000000        1.31942900000000
C           -4.19873800000000        0.82351100000000        0.10403800000000
N           -1.18961300000000       -0.75106100000000       -1.58569500000000
C           -0.85780100000000       -0.76017800000000       -2.98229800000000
C            4.17253300000000        1.57723300000000        0.90193100000000
C            3.15781500000000        1.50081700000000        1.97222800000000
C            5.48014800000000        1.87670600000000        1.22478200000000
H            8.48865400000000        2.75890200000000       -1.29338300000000
H            9.25833100000000        1.35373400000000       -0.48670000000000
H            9.59209200000000        3.07484300000000        0.05261000000000
H            6.77631800000000        1.77545600000000       -1.84038900000000
H            3.71222000000000        1.97686400000000       -3.14827300000000
H            5.27671300000000        1.08345800000000       -3.41378300000000
H            3.86004500000000        0.19509400000000       -2.80846300000000
H           -1.69011100000000       -4.18237800000000       -0.76019500000000
H           -1.95487500000000       -3.37496000000000        2.08902900000000
H           -2.21734400000000       -2.07819600000000        0.80622700000000
H           -3.17052000000000       -3.56661900000000        0.82568300000000
H           -0.59880800000000       -5.94682900000000        0.07923600000000
H           -1.47584200000000       -5.44633900000000        1.52005200000000
H            0.30436600000000       -5.03472400000000        1.31461000000000
H            0.93143000000000       -4.84618700000000       -0.56901300000000
H            0.86746200000000       -3.83879300000000       -3.23044700000000
H           -0.77650800000000       -3.74265700000000       -2.49279900000000
H            0.10025100000000       -5.29619400000000       -2.59253200000000
H            2.48399500000000       -2.79325300000000       -2.14051300000000
H            2.88837400000000       -4.33810100000000       -1.42081200000000
H            2.64900900000000       -3.00369000000000       -0.29530200000000
H            1.23663800000000       -1.03440500000000        2.60842600000000
H            0.32975800000000       -2.47340000000000        2.25928700000000
H           -0.46476200000000       -1.31007000000000        3.27404700000000
H            0.30648400000000        0.66772500000000        3.14922300000000
H           -0.40990000000000        3.00060000000000        3.68365500000000
H           -1.71810600000000        4.97441900000000        3.13494800000000
H           -3.29354800000000        6.06352600000000        1.61383900000000
H           -4.31253600000000        4.96439900000000       -0.27768700000000
H           -3.69791100000000        2.68393400000000       -0.77747400000000
H           -3.05659400000000       -1.01126400000000       -3.17164700000000
H           -5.47538900000000       -0.45199300000000       -2.80457400000000
H           -7.20141200000000        0.41291800000000       -1.39500300000000
H           -7.86695800000000        1.39524100000000        0.78720500000000
H           -6.27388300000000        1.98789400000000        2.53194900000000
H           -3.94343400000000        1.51811600000000        2.16088100000000
H            0.24673300000000       -0.77782300000000       -3.04193500000000
H           -1.18445900000000       -1.65614300000000       -3.54207600000000
H           -1.15348100000000        0.17200600000000       -3.50944500000000
H            3.06516700000000        0.50692800000000        2.42486400000000
H            2.18408700000000        1.87187400000000        1.54805700000000
H            3.39911600000000        2.27839900000000        2.75485200000000
H            5.77179600000000        2.05618000000000        2.25486300000000
87
 energy: -122.555270933367 gnorm: 0.185400095000 xtb: 6.7.1 (edcfbbe)
C            8.79883864174047        2.35860149822670       -0.31582737070005
O            7.74763054780582        2.26237115153606        0.61790435324237
C            6.45941307297569        1.95770807255458        0.24851502699668
C            6.06216237548034        1.72429666620705       -1.05717591278547
C            4.75395054005460        1.42698582448507       -1.37910422879563
C            4.37592007961837        1.17499043190660       -2.79914816775530
C            3.80471877803064        1.35575991639919       -0.38175089470625
S            2.11335533910145        1.15686497135043       -0.88478317383231
Se           1.75498804029234       -0.84368048839944       -0.96285005022567
P           -0.16797198868730       -1.41817663076521       -0.35854861674214
N           -0.00874449760581       -3.07334216681379       -0.25045165185547
C           -1.14611810510184       -3.85159613140215        0.13779723280192
C           -2.15929733160959       -3.14647739493688        1.01222957830803
C           -0.67136298683085       -5.14315075828950        0.82439597687684
C            0.85028641543300       -3.85910958202081       -1.10246495718702
C            0.21070207202505       -4.21665317596642       -2.43460256829904
C            2.27809050893975       -3.42032219053870       -1.24760929838327
N           -0.36807259738904       -0.71985303126762        1.22552380882967
C            0.20732382935894       -1.39080910373275        2.37229089514657
C           -1.00455492680896        0.52259147200001        1.52447617248740
C           -0.42995248286467        1.20628850173308        2.60355521104592
C           -0.85952239873875        2.47801653212950        2.85687317189013
C           -1.82799123734320        3.12172252109496        2.08089175795098
C           -2.15968448404431        4.44721846924429        2.30600239333246
C           -3.04162997624117        5.04763091528483        1.44826471481540
C           -3.62716108550085        4.42006616735987        0.36448219753677
C           -3.30465263428502        3.11122681108599        0.13248797834224
C           -2.41641906545000        2.44885949730186        0.98773125272541
C           -1.97679995317843        1.13341468280650        0.78296872473509
C           -2.87062106426046        0.47701427598370       -0.19064254242307
C           -2.49297307064991       -0.18502861385509       -1.32818556094324
C           -3.43591730988136       -0.51534404945500       -2.29383610939079
C           -4.74170062606684       -0.18600684338451       -2.05914358566718
C           -5.15368304834600        0.45712387326905       -0.88271707639432
C           -6.49589844461997        0.68307675943011       -0.62554370781905
C           -6.84105431303522        1.22482270323814        0.58476749585563
C           -5.93711065236023        1.56243145402971        1.57599160957604
C           -4.60934580917215        1.34100783982256        1.33112511375081
C           -4.20331979312113        0.80049439466207        0.10388581062007
N           -1.19446801582494       -0.74288021652450       -1.57349308578671
C           -0.84174802415579       -0.76125911983643       -2.97996152686416
C            4.17803842121509        1.57732087892244        0.91792806141430
C            3.14925487148795        1.51586348138411        1.98147200760661
C            5.48699624460545        1.87788205270293        1.23265018330430
H            8.48695450593130        2.75822548031730       -1.29115381994141
H            9.25665584530656        1.36105633369546       -0.48503660379579
H            9.57989556442284        3.06345279780149        0.05581878982093
H            6.77987030474262        1.77458917114040       -1.84748363297872
H            3.71566525714489        1.96998028144898       -3.15055783322749
H            5.27181796233306        1.08630661735240       -3.41556526588651
H            3.85877000216744        0.19946389618381       -2.81644099311665
H           -1.69151797715416       -4.18159020668468       -0.76256199882182
H           -1.95477668600167       -3.36328195829464        2.08164879644341
H           -2.21854598295126       -2.08033542758681        0.80945488182354
H           -3.16435497836829       -3.56473108523890        0.82558327350822
H           -0.59718041243186       -5.94749534138946        0.08425341841501
H           -1.46586338243206       -5.44763713868650        1.52139388589140
H            0.29497445690563       -5.03383694970211        1.31945001648723
H            0.93444890687335       -4.83726086525954       -0.56846970533444
H            0.86029122281154       -3.83878338783163       -3.23414004070245
H           -0.77328074945825       -3.74471694121049       -2.50013765695044
H            0.10001951348520       -5.29094486135684       -2.59046400979101
H            2.48179886324025       -2.79274398345063       -2.12949341400999
H            2.88702513486730       -4.33466473111072       -1.42123718519371
H            2.64998124261252       -3.00241878121150       -0.30471967457377
H            1.22860815244282       -1.03317292567902        2.60814700966460
H            0.32762801394962       -2.47432416513757        2.24834790058909
H           -0.45624131700635       -1.30566021585263        3.26425598313551
H            0.31073610395295        0.68016999951004        3.15735915202734
H           -0.41017697268740        3.00318792834857        3.68590857863079
H           -1.71909296256726        4.97795186267991        3.13417282718914
H           -3.29543237701568        6.07474155217095        1.61716149032606
H           -4.31033243288714        4.96159739407060       -0.27689336557668
H           -3.69488082607483        2.68511499478459       -0.77785585241037
H           -3.07194768297079       -1.01330037500577       -3.17298783584171
H           -5.47810794573548       -0.45130836976383       -2.80452975970122
H           -7.20721603218490        0.41377847838483       -1.39005725104751
H           -7.87908070316423        1.39565284426439        0.78818626832084
H           -6.27161377754876        1.98348293831490        2.52568591037982
H           -3.94419395384661        1.51441597878060        2.16108456443689
H            0.25338762657424       -0.77887397689357       -3.04520999178372
H           -1.18541455600341       -1.65009003649696       -3.53688367686214
H           -1.15498306268686        0.16279808734454       -3.50124292123270
H            3.06431286492678        0.51605398409644        2.42331433459393
H            2.18701576690374        1.86299376180605        1.55295607190775
H            3.39827920697994        2.26743667951881        2.75583954672217
H            5.77220039761187        2.05675634286567        2.25672714583162
87
 energy: -122.614418553616 gnorm: 0.089336515381 xtb: 6.7.1 (edcfbbe)
C            8.79248749010850        2.35472945145885       -0.32706829222477
O            7.74384957203086        2.26779706383614        0.61497277486485
C            6.47311493075989        1.95626103374990        0.23977542630492
C            6.07555744183911        1.71734573281101       -1.07144405405285
C            4.76446129650284        1.42721595741748       -1.39472453615262
C            4.38163680183220        1.16048381099150       -2.80952355214447
C            3.80999458410018        1.37152461076671       -0.38719810275931
S            2.07904163522082        1.29205697902428       -0.86740708471752
Se           1.84164743779535       -0.77678882415733       -0.99092908118535
P           -0.16113532637815       -1.39184823978147       -0.35122798781322
N           -0.01172979899113       -3.05548757789384       -0.24919063048009
C           -1.16129539256313       -3.86281579251140        0.14000699156685
C           -2.17357817008946       -3.15379833780827        1.02429335473033
C           -0.68707767110061       -5.15581171454736        0.82965721340524
C            0.85655713817644       -3.87947545091119       -1.10142802331883
C            0.21566771268676       -4.20428200826157       -2.45358327743421
C            2.30678959208884       -3.47322782240210       -1.25473076180286
N           -0.38756844970786       -0.73844633581897        1.21621553467289
C            0.20748514441296       -1.41814097628293        2.35811798743185
C           -0.97461064893164        0.52646182826562        1.50444216865534
C           -0.42157330902193        1.22447675582772        2.59705316590025
C           -0.85054163761793        2.48597160069841        2.86998342842857
C           -1.79993862218331        3.14213653138214        2.07070328615382
C           -2.16553413455314        4.47106135778265        2.30985691817161
C           -3.05448024744837        5.08106620790181        1.46931522206939
C           -3.61834606741043        4.43402723186133        0.37177838271776
C           -3.26666823063647        3.13862764802301        0.11483150016465
C           -2.36244283221305        2.46626268348066        0.96562532295635
C           -1.95757156385189        1.11973568339731        0.76053841135635
C           -2.85868547895062        0.44619409015609       -0.17591287974332
C           -2.50068367546560       -0.22950395351998       -1.30933629406982
C           -3.46072752572861       -0.53174292632495       -2.28627247929408
C           -4.75927460214341       -0.19196380850458       -2.06848579532498
C           -5.17166454609125        0.42227003915480       -0.87243427286717
C           -6.52187662656361        0.68255038643473       -0.61525138760075
C           -6.88141233977840        1.23267337011320        0.58398584030400
C           -5.95424662054042        1.54828362071952        1.57604578851057
C           -4.63134396270144        1.29245725038097        1.34859574525909
C           -4.21578849107071        0.73851835005836        0.11773762298818
N           -1.18904637803011       -0.73025689058100       -1.55174904798412
C           -0.81192392628341       -0.76317037943085       -2.96159363773161
C            4.18194046943563        1.58351916749810        0.92910066389708
C            3.14411328981251        1.53961439530938        1.99468520412360
C            5.49914345996302        1.87479025453720        1.23516920967381
H            8.47841254882776        2.75814367149663       -1.29390164171526
H            9.25179518721512        1.36834348187798       -0.48607452738025
H            9.55617366397440        3.03912919130633        0.06883912089725
H            6.79303382370453        1.76632907172504       -1.86759055482165
H            3.72364283314198        1.95053951179209       -3.16649602955393
H            5.26715370750547        1.08798237239957       -3.43274142773838
H            3.85274350271455        0.20083130681104       -2.84285881273668
H           -1.69713498545759       -4.17846982441909       -0.76663914130977
H           -1.95163288740876       -3.33046337586828        2.08001692600130
H           -2.23092583173072       -2.08796692784061        0.81608185210046
H           -3.16355908066335       -3.56947308929732        0.83271431846573
H           -0.59015551540296       -5.95972542688235        0.10049416135909
H           -1.45063790308108       -5.46263792883658        1.53841219998209
H            0.26803983427535       -5.02782208879108        1.33876614587653
H            0.93608690435899       -4.82625159193785       -0.55908992581976
H            0.84653141453812       -3.83207374586063       -3.25666882350589
H           -0.76764462983477       -3.74426864909385       -2.52533073262874
H            0.10011190301736       -5.27770979312064       -2.59196599316831
H            2.49187219156672       -2.82374538606495       -2.11825606033002
H            2.90188149207963       -4.36424682091105       -1.43113596028710
H            2.67419822222495       -3.03096829296093       -0.32556236604796
H            1.21156195110954       -1.03273203759039        2.59611331951328
H            0.32405898621691       -2.49039996195631        2.20760427935289
H           -0.43943126183845       -1.30083120745680        3.24104015968493
H            0.32351004838721        0.72089617989838        3.17523435797064
H           -0.41277245644482        3.01410876360272        3.70067027689757
H           -1.72352982524030        4.99536558014701        3.13881315024790
H           -3.30906692932727        6.11024016965228        1.63313287372382
H           -4.30770323249454        4.95987870952747       -0.27122300253210
H           -3.67644695209289        2.69374640462367       -0.77817594210477
H           -3.12133453169471       -1.02522203240300       -3.17655304474385
H           -5.49799772216420       -0.44584355146841       -2.81008630439415
H           -7.23525872382365        0.41596755848150       -1.37554532155186
H           -7.91993447639898        1.40159837257116        0.79357203655045
H           -6.27506450425151        1.97261346107905        2.51816649148694
H           -3.95232975246287        1.49104130367130        2.16258235831415
H            0.27589163499588       -0.77747713119589       -3.05001937582220
H           -1.18517622544691       -1.64002573073327       -3.51072606781230
H           -1.15996552540952        0.14439011827874       -3.47285154966199
H            3.06389582093217        0.53812075465111        2.42161719051410
H            2.18437827400994        1.84649572747085        1.56822544749671
H            3.39889468335406        2.25359350666859        2.77648795450842
H            5.78110860380245        2.05764532265220        2.25790999912208
87
 energy: -122.642341178389 gnorm: 0.036734921647 xtb: 6.7.1 (edcfbbe)
C            8.78571233210269        2.35185256403129       -0.33261221806342
O            7.73336224351557        2.27134571168497        0.61113051440643
C            6.47968684791302        1.94936775731684        0.22898458726151
C            6.08288439299763        1.70185134105713       -1.08410468097778
C            4.76521195546501        1.43178438801887       -1.40715670409669
C            4.38151397421388        1.15202926513367       -2.82070002150284
C            3.80546341274435        1.41314417285242       -0.39404254336587
S            2.05079410985643        1.39130324741862       -0.84185079895362
Se           1.92072424262488       -0.74183699073219       -1.01059336827473
P           -0.12396344476479       -1.36703939002332       -0.35420963059819
N           -0.00715389175541       -3.03879144089176       -0.25047967445392
C           -1.17354979287149       -3.86695350388098        0.14274090207273
C           -2.18960104435678       -3.15636631856499        1.03098616226705
C           -0.70518158863414       -5.16052741733882        0.83909827928633
C            0.86226338016779       -3.89430909554524       -1.10647157724238
C            0.22002712095508       -4.19521679930537       -2.47046992557127
C            2.32541605929013       -3.49874959623883       -1.25849440437447
N           -0.40878921678492       -0.76174025831460        1.19258379780249
C            0.20806677316650       -1.44075675858652        2.33378602445807
C           -0.93230768881141        0.53683231557275        1.47324702859629
C           -0.39704435321362        1.24562880157606        2.57447640124769
C           -0.83046081647868        2.50000947647574        2.87144154037416
C           -1.76593032881895        3.16627245630750        2.05466998265142
C           -2.16261149586345        4.49462799935031        2.30807101310248
C           -3.05796380432111        5.11465768139251        1.48524688557060
C           -3.59838559636634        4.44767870201799        0.37744581965270
C           -3.22518675842775        3.16274370780250        0.10304628675737
C           -2.31135313766891        2.48239711694001        0.94745502338620
C           -1.93788999302109        1.11301318043404        0.73834911272610
C           -2.85206304712837        0.41808440573409       -0.16096928904817
C           -2.50556471306414       -0.28083483502780       -1.28704801166558
C           -3.48074325038677       -0.56727776724017       -2.26659864535999
C           -4.77817080394681       -0.21315053883904       -2.06679550313430
C           -5.19266934159763        0.38090051802815       -0.85676177342862
C           -6.54726516404177        0.67361507118427       -0.60246902664220
C           -6.92150665691160        1.23141455274291        0.58553275323222
C           -5.97192126595198        1.52428289376545        1.57466855002781
C           -4.65334922040940        1.24294403276495        1.35963698097882
C           -4.22949697034885        0.68029755402241        0.12971471767249
N           -1.17123712272715       -0.71816432574482       -1.52339346664468
C           -0.78576853964879       -0.76286652211494       -2.93675176878650
C            4.17912318236163        1.61074941018049        0.93393369763779
C            3.14400312448856        1.56154465241154        2.00971152043444
C            5.50626343297373        1.87270593854694        1.23210203171979
H            8.46911784018392        2.76422926119505       -1.29094144236906
H            9.23616090475723        1.36821469934549       -0.49211955711304
H            9.53672803189073        3.01957579803794        0.08950838414357
H            6.80041756174196        1.74321862416492       -1.88586240236198
H            3.72613659199512        1.93828728003929       -3.19005188869752
H            5.26091913441125        1.08829281813368       -3.45110530122022
H            3.84449437749981        0.20150678761192       -2.86827727394367
H           -1.70050623938027       -4.16808104687643       -0.77064361058892
H           -1.94917454535423       -3.29407542435824        2.08078039153136
H           -2.25578195540424       -2.09320738721482        0.81051715741884
H           -3.16952157017188       -3.58235516702276        0.84823489917872
H           -0.58650448472585       -5.96893317488116        0.12183466778555
H           -1.45257378251018       -5.47154905096484        1.55622203721336
H            0.23799401892448       -5.01660778210259        1.36551346169702
H            0.92264932856068       -4.82247999418056       -0.55355854783790
H            0.83903218593073       -3.81984992931157       -3.27553486714559
H           -0.76353767134489       -3.74210024973766       -2.54678277586911
H            0.10279231046218       -5.26780984837518       -2.60284899138528
H            2.49936073734646       -2.83343193705738       -2.10616604267476
H            2.90355088636064       -4.39198684407165       -1.43968413956124
H            2.69541939644725       -3.04520266794396       -0.33927854048871
H            1.20118395065200       -1.03913671246012        2.56628060289812
H            0.31994596121965       -2.50397093805342        2.15346656960481
H           -0.43050149184358       -1.30845602728682        3.20944155294193
H            0.34151869466904        0.76424134803393        3.18937988125320
H           -0.42050435077506        3.02126529485446        3.72156631327371
H           -1.72734797618245        5.01060604164906        3.14726665020162
H           -3.33261775138898        6.14026744180392        1.65830284232177
H           -4.30034425335619        4.95741800192187       -0.26455269920323
H           -3.63927136548728        2.69826530105404       -0.77830339842792
H           -3.16878890705984       -1.04494287366147       -3.17793696657760
H           -5.51658100393081       -0.43051009140609       -2.82109736792541
H           -7.26554840591470        0.42159560464949       -1.36428207214296
H           -7.95983797527902        1.42117247701078        0.79217813051253
H           -6.28182318602587        1.96032722124161        2.51073116777286
H           -3.95755851677945        1.45160891971968        2.15758476745343
H            0.29680742402410       -0.77735351813044       -3.03879898009150
H           -1.17854478949910       -1.63656477736602       -3.46931567459867
H           -1.15774522643605        0.13484580862576       -3.43749034754644
H            3.07318104026522        0.55193584336242        2.41919479422438
H            2.17937108735138        1.84450058879219        1.59955991755723
H            3.40174194312060        2.24604789251332        2.80612225566411
H            5.79270050452637        2.05268303232140        2.25485786199345
87
 energy: -122.654868760120 gnorm: 0.022837618288 xtb: 6.7.1 (edcfbbe)
C            8.78075675475415        2.34738458681937       -0.33660487340937
O            7.72569259401124        2.26646703555755        0.60488590263850
C            6.47883459077943        1.94493404220244        0.21591386728711
C            6.08451875768493        1.68846979725074       -1.09654347960235
C            4.75883116428462        1.45090471964231       -1.41872989828306
C            4.37692629201243        1.15432847158654       -2.83321881848418
C            3.79813980426008        1.48203461320125       -0.40304287200318
S            2.03783219515636        1.49426382731774       -0.83674144431689
Se           1.94082274056759       -0.66824250989507       -1.02175298669920
P           -0.09705994595949       -1.35803160018585       -0.35909177584363
N           -0.00269021473752       -3.03395685972836       -0.25296413437055
C           -1.18150117024143       -3.86434558722143        0.14807787002867
C           -2.20156016648615       -3.15039395204493        1.03152199619347
C           -0.71945424189333       -5.15354683069941        0.85693839232903
C            0.86291407911221       -3.90150647690668       -1.11509713505475
C            0.22443482543998       -4.18689729505335       -2.48520054060359
C            2.33545217568557       -3.52794929876320       -1.26292149840450
N           -0.42771359734460       -0.77415025618282        1.17204319693909
C            0.21120111386413       -1.45359548232734        2.30315635624025
C           -0.89851338632753        0.55255164491240        1.44663971273352
C           -0.36138191007792        1.26716832359709        2.54270646681319
C           -0.80220741182866        2.51812738137857        2.85682870890344
C           -1.73454373355056        3.18820211947940        2.03823802790336
C           -2.14884297847212        4.51243079127591        2.30337019675714
C           -3.05469543729016        5.13542513688806        1.49457381600928
C           -3.57745266592331        4.46059044800138        0.38002659873344
C           -3.19219897965653        3.18115984852532        0.09660331549832
C           -2.27842468881311        2.49584812425685        0.93535133108763
C           -1.92610901597142        1.11720090352563        0.72533504640028
C           -2.85863428506908        0.39654539689819       -0.14383287714241
C           -2.51479720629373       -0.32199152612208       -1.26334415478272