      -----------------------------------------------------------      
     |                   =====================                   |     
     |                           x T B                           |     
     |                   =====================                   |     
     |                         S. Grimme                         |     
     |          Mulliken Center for Theoretical Chemistry        |     
     |                    University of Bonn                     |     
      -----------------------------------------------------------      

   * xtb version 6.7.1 (edcfbbe) compiled by 'conda@3ef47c1a292c' on 2024-11-25

   xtb is free software: you can redistribute it and/or modify it under
   the terms of the GNU Lesser General Public License as published by
   the Free Software Foundation, either version 3 of the License, or
   (at your option) any later version.
   
   xtb is distributed in the hope that it will be useful,
   but WITHOUT ANY WARRANTY; without even the implied warranty of
   MERCHANTABILITY or FITNESS FOR A PARTICULAR PURPOSE.  See the
   GNU Lesser General Public License for more details.
   
   Cite this work as:
   * C. Bannwarth, E. Caldeweyher, S. Ehlert, A. Hansen, P. Pracht,
     J. Seibert, S. Spicher, S. Grimme, WIREs Comput. Mol. Sci., 2020, 11,
     e01493. DOI: 10.1002/wcms.1493
   
   for GFN2-xTB:
   * C. Bannwarth, S. Ehlert and S. Grimme., J. Chem. Theory Comput., 2019,
     15, 1652-1671. DOI: 10.1021/acs.jctc.8b01176
   for GFN1-xTB:
   * S. Grimme, C. Bannwarth, P. Shushkov, J. Chem. Theory Comput., 2017,
     13, 1989-2009. DOI: 10.1021/acs.jctc.7b00118
   for GFN0-xTB:
   * P. Pracht, E. Caldeweyher, S. Ehlert, S. Grimme, ChemRxiv, 2019, preprint.
     DOI: 10.26434/chemrxiv.8326202.v1
   for GFN-FF:
   * S. Spicher and S. Grimme, Angew. Chem. Int. Ed., 2020, 59, 15665-15673.
     DOI: 10.1002/anie.202004239
   
   for ALPB and GBSA implicit solvation:
   * S. Ehlert, M. Stahn, S. Spicher, S. Grimme, J. Chem. Theory Comput.,
     2021, 17, 4250-4261. DOI: 10.1021/acs.jctc.1c00471
   
   for ddCOSMO and CPCM-X implicit solvation:
   * M. Stahn, S. Ehlert, S. Grimme, J. Phys. Chem. A,
     2023, XX, XXXX-XXXX. DOI: 10.1021/acs.jpca.3c04382
   
   for DFT-D4:
   * E. Caldeweyher, C. Bannwarth and S. Grimme, J. Chem. Phys., 2017,
     147, 034112. DOI: 10.1063/1.4993215
   * E. Caldeweyher, S. Ehlert, A. Hansen, H. Neugebauer, S. Spicher,
     C. Bannwarth and S. Grimme, J. Chem. Phys., 2019, 150, 154122.
     DOI: 10.1063/1.5090222
   * E. Caldeweyher, J.-M. Mewes, S. Ehlert and S. Grimme, Phys. Chem. Chem. Phys.
     2020, 22, 8499-8512. DOI: 10.1039/D0CP00502A
   
   for sTDA-xTB:
   * S. Grimme and C. Bannwarth, J. Chem. Phys., 2016, 145, 054103.
     DOI: 10.1063/1.4959605
   
   in the mass-spec context:
   * V. Asgeirsson, C. Bauer and S. Grimme, Chem. Sci., 2017, 8, 4879.
     DOI: 10.1039/c7sc00601b
   * J. Koopman and S. Grimme, ACS Omega 2019, 4, 12, 15120-15133.
     DOI: 10.1021/acsomega.9b02011
   
   for metadynamics refer to:
   * S. Grimme, J. Chem. Theory Comput., 2019, 155, 2847-2862
     DOI: 10.1021/acs.jctc.9b00143
   
   for SPH calculations refer to:
   * S. Spicher and S. Grimme, J. Chem. Theory Comput., 2021, 17, 1701-1714
     DOI: 10.1021/acs.jctc.0c01306
   
   for ONIOM refer to:
   * C. Plett, A. Katbashev, S. Ehlert, S. Grimme, M. Bursch,
     Phys. Chem. Chem. Phys., 2023, 25, 17860-17868. DOI: 10.1039/D3CP02178E
   
   for DIPRO refer to:
   * J. Kohn, N. Gildemeister, S. Grimme, D. Fazzi, A. Hansen,
     J. Chem. Phys., 2023, just accepted.
   
   for PTB refer to:
   * S. Grimme, M. Mueller, A. Hansen, J. Chem. Phys., 2023, 158, 124111.
     DOI: 10.1063/5.0137838
   
   with help from (in alphabetical order)
   P. Atkinson, C. Bannwarth, F. Bohle, G. Brandenburg, E. Caldeweyher
   M. Checinski, S. Dohm, S. Ehlert, S. Ehrlich, I. Gerasimov, C. Hölzer
   A. Katbashev, J. Kohn, J. Koopman, C. Lavigne, S. Lehtola, F. März, M. Müller,
   F. Musil, H. Neugebauer, J. Pisarek, C. Plett, P. Pracht, F. Pultar,
   J. Seibert, P. Shushkov, S. Spicher, M. Stahn, M. Steiner, T. Strunk,
   J. Stückrath, T. Rose, and J. Unsleber
   
 * started run on 2024/12/16 at 19:48:57.134     
   ID    Z sym.   atoms
    1    6 C      1, 3-22, 24, 28-33, 35-48
    2    7 N      2, 23, 34
    3   15 P      25
    4   16 S      26, 27
    5    1 H      49-83

           -------------------------------------------------
          |                Calculation Setup                |
           -------------------------------------------------

          program call               : xtb --gfn2 --opt extreme -P 8 --charge 1 molecule.xyz
          hostname                   : node20
          coordinate file            : molecule.xyz
          omp threads                :                     8


           -------------------------------------------------
          |                 G F N 2 - x T B                 |
           -------------------------------------------------

        Reference                      10.1021/acs.jctc.8b01176
      * Hamiltonian:
        H0-scaling (s, p, d)           1.850000    2.230000    2.230000
        zeta-weighting                 0.500000
      * Dispersion:
        s8                             2.700000
        a1                             0.520000
        a2                             5.000000
        s9                             5.000000
      * Repulsion:
        kExp                           1.500000    1.000000
        rExp                           1.000000
      * Coulomb:
        alpha                          2.000000
        third order                    shell-resolved
        anisotropic                    true
        a3                             3.000000
        a5                             4.000000
        cn-shift                       1.200000
        cn-exp                         4.000000
        max-rad                        5.000000


          ...................................................
          :                      SETUP                      :
          :.................................................:
          :  # basis functions                 245          :
          :  # atomic orbitals                 242          :
          :  # shells                          134          :
          :  # electrons                       234          :
          :  max. iterations                   250          :
          :  Hamiltonian                  GFN2-xTB          :
          :  restarted?                      false          :
          :  GBSA solvation                  false          :
          :  PC potential                    false          :
          :  electronic temp.          300.0000000     K    :
          :  accuracy                    1.0000000          :
          :  -> integral cutoff          0.2500000E+02      :
          :  -> integral neglect         0.1000000E-07      :
          :  -> SCF convergence          0.1000000E-05 Eh   :
          :  -> wf. convergence          0.1000000E-03 e    :
          :  Broyden damping             0.4000000          :
          :  net charge                          1          :
          :  unpaired electrons                  0          :
          ...................................................

 iter      E             dE          RMSdq      gap      omega  full diag
   1   -127.1344466 -0.127134E+03  0.451E+00    1.71       0.0  T
   2   -127.2852144 -0.150768E+00  0.278E+00    2.06       1.0  T
   3   -127.2317166  0.534978E-01  0.137E+00    1.85       1.0  T
   4   -127.2976543 -0.659377E-01  0.592E-01    1.55       1.0  T
   5   -127.3180100 -0.203556E-01  0.254E-01    1.69       1.0  T
   6   -127.3197927 -0.178271E-02  0.141E-01    1.66       1.0  T
   7   -127.3215861 -0.179339E-02  0.458E-02    1.68       1.0  T
   8   -127.3216387 -0.526662E-04  0.234E-02    1.68       1.0  T
   9   -127.3216520 -0.132755E-04  0.114E-02    1.68       1.0  T
  10   -127.3216548 -0.282737E-05  0.523E-03    1.68       2.1  T
  11   -127.3216552 -0.340103E-06  0.274E-03    1.68       4.0  T
  12   -127.3216554 -0.192645E-06  0.168E-03    1.68       6.5  T
  13   -127.3216554 -0.330351E-07  0.771E-04    1.68      14.2  T
  14   -127.3216554 -0.601602E-08  0.456E-04    1.68      24.1  T

   *** convergence criteria satisfied after 14 iterations ***

         #    Occupation            Energy/Eh            Energy/eV
      -------------------------------------------------------------
         1        2.0000           -0.8628073             -23.4782
       ...           ...                  ...                  ...
       111        2.0000           -0.4943703             -13.4525
       112        2.0000           -0.4920723             -13.3900
       113        2.0000           -0.4874083             -13.2631
       114        2.0000           -0.4841478             -13.1743
       115        2.0000           -0.4755465             -12.9403
       116        2.0000           -0.4673596             -12.7175
       117        2.0000           -0.4535689             -12.3422 (HOMO)
       118                         -0.3918224             -10.6620 (LUMO)
       119                         -0.3705817             -10.0840
       120                         -0.3597533              -9.7894
       121                         -0.3489206              -9.4946
       122                         -0.3370350              -9.1712
       ...                                ...                  ...
       242                          1.0070236              27.4025
      -------------------------------------------------------------
                  HL-Gap            0.0617464 Eh            1.6802 eV
             Fermi-level           -0.4226956 Eh          -11.5021 eV

 SCC (total)                   0 d,  0 h,  0 min,  2.298 sec
 SCC setup                      ...        0 min,  0.000 sec (  0.014%)
 Dispersion                     ...        0 min,  0.002 sec (  0.077%)
 classical contributions        ...        0 min,  0.000 sec (  0.005%)
 integral evaluation            ...        0 min,  0.007 sec (  0.302%)
 iterations                     ...        0 min,  2.149 sec ( 93.526%)
 molecular gradient             ...        0 min,  0.115 sec (  5.003%)
 printout                       ...        0 min,  0.025 sec (  1.072%)

         :::::::::::::::::::::::::::::::::::::::::::::::::::::
         ::                     SUMMARY                     ::
         :::::::::::::::::::::::::::::::::::::::::::::::::::::
         :: total energy            -125.276113813767 Eh    ::
         :: gradient norm              0.141082564960 Eh/a0 ::
         :: HOMO-LUMO gap              1.680205405502 eV    ::
         ::.................................................::
         :: SCC energy              -127.314254939022 Eh    ::
         :: -> isotropic ES            0.073796891923 Eh    ::
         :: -> anisotropic ES          0.001163969346 Eh    ::
         :: -> anisotropic XC          0.079208062655 Eh    ::
         :: -> dispersion             -0.141343204685 Eh    ::
         :: repulsion energy           2.038141125255 Eh    ::
         :: add. restraining           0.000000000000 Eh    ::
         :: total charge               1.000000000000 e     ::
         :::::::::::::::::::::::::::::::::::::::::::::::::::::

      ----------------------------------------------------------- 
     |                   =====================                   |
     |                        A N C O P T                        |
     |                   =====================                   |
     |               Approximate Normal Coordinate               |
     |                Rational Function Optimizer                |
      ----------------------------------------------------------- 
      ----------------------------------------------------------- 
     |                   =====================                   |
     |                        A N C O P T                        |
     |                   =====================                   |
     |               Approximate Normal Coordinate               |
     |                Rational Function Optimizer                |
      ----------------------------------------------------------- 

          ...................................................
          :                      SETUP                      :
          :.................................................:
          :   optimization level           extreme          :
          :   max. optcycles                  1660          :
          :   ANC micro-cycles                  20          :
          :   degrees of freedom               243          :
          :.................................................:
          :   RF solver                   davidson          :
          :   write xtbopt.log                true          :
          :   linear?                        false          :
          :   energy convergence         0.5000000E-07 Eh   :
          :   grad. convergence          0.5000000E-04 Eh/α :
          :   maxmium RF displ.          1.0000000          :
          :   Hlow (freq-cutoff)         0.1000000E-01      :
          :   Hmax (freq-cutoff)         5.0000000          :
          :   S6 in model hess.         20.0000000          :
          ...................................................

generating ANC from exact Hessian ...
Using Lindh-Hessian (1995)
 Shifting diagonal of input Hessian by    9.8731676591689837E-003
 Lowest  eigenvalues of input Hessian
    0.000000    0.000000    0.000000    0.000000    0.000000    0.000000
    0.010000    0.010061    0.010162    0.010213    0.010322    0.010453
    0.010560    0.010735    0.011136    0.011210    0.011264    0.011523
 Highest eigenvalues
    1.969121    1.988410    1.995255    2.028251    2.066327    2.075253


........................................................................
.............................. CYCLE    1 ..............................
........................................................................

 iter      E             dE          RMSdq      gap      omega  full diag
   1   -127.3216554 -0.127322E+03  0.204E-04    1.68       0.0  T
   2   -127.3216554 -0.128281E-09  0.152E-04    1.68      72.4  T
   3   -127.3216554 -0.429637E-09  0.110E-04    1.68      99.9  T
     SCC iter.                  ...        0 min,  0.355 sec
     gradient                   ...        0 min,  0.117 sec
 * total energy  :  -125.2761138 Eh     change       -0.5463534E-08 Eh
   gradient norm :     0.1410854 Eh/α   predicted     0.0000000E+00 (-100.00%)
   displ. norm   :     0.4020347 α      lambda       -0.3092390E-01
   maximum displ.:     0.0964733 α      in ANC's #26, #16, #48, ...

........................................................................
.............................. CYCLE    2 ..............................
........................................................................

 iter      E             dE          RMSdq      gap      omega  full diag
   1   -127.4165526 -0.127417E+03  0.312E-01    1.79       0.0  T
   2   -127.4167491 -0.196444E-03  0.158E-01    1.88       1.0  T
   3   -127.4166047  0.144404E-03  0.582E-02    1.93       1.0  T
   4   -127.4167809 -0.176261E-03  0.250E-02    1.93       1.0  T
   5   -127.4168061 -0.251568E-04  0.110E-02    1.93       1.0  T
   6   -127.4168123 -0.623928E-05  0.490E-03    1.93       2.2  T
   7   -127.4168134 -0.109400E-05  0.280E-03    1.92       3.9  T
   8   -127.4168136 -0.153268E-06  0.160E-03    1.92       6.9  T
   9   -127.4168136 -0.507475E-07  0.872E-04    1.92      12.6  T
  10   -127.4168136 -0.463750E-08  0.499E-04    1.92      22.0  T
     SCC iter.                  ...        0 min,  1.529 sec
     gradient                   ...        0 min,  0.115 sec
 * total energy  :  -125.2984137 Eh     change       -0.2229983E-01 Eh
   gradient norm :     0.0638911 Eh/α   predicted    -0.1798837E-01 ( -19.33%)
   displ. norm   :     0.4274227 α      lambda       -0.1281807E-01
   maximum displ.:     0.1543922 α      in ANC's #16, #26, #18, ...

........................................................................
.............................. CYCLE    3 ..............................
........................................................................

 iter      E             dE          RMSdq      gap      omega  full diag
   1   -127.4728178 -0.127473E+03  0.270E-01    2.07       0.0  T
   2   -127.4729237 -0.105866E-03  0.138E-01    2.13       1.0  T
   3   -127.4728181  0.105595E-03  0.488E-02    2.16       1.0  T
   4   -127.4729515 -0.133366E-03  0.164E-02    2.16       1.0  T
   5   -127.4729614 -0.989541E-05  0.663E-03    2.16       1.7  T
   6   -127.4729636 -0.222978E-05  0.315E-03    2.16       3.5  T
   7   -127.4729640 -0.445046E-06  0.154E-03    2.16       7.1  T
   8   -127.4729641 -0.451090E-07  0.802E-04    2.16      13.7  T
   9   -127.4729641 -0.308701E-07  0.385E-04    2.16      28.5  T
     SCC iter.                  ...        0 min,  1.207 sec
     gradient                   ...        0 min,  0.115 sec
 * total energy  :  -125.3064535 Eh     change       -0.8039896E-02 Eh
   gradient norm :     0.0204291 Eh/α   predicted    -0.7579905E-02 (  -5.72%)
   displ. norm   :     0.3994123 α      lambda       -0.3213769E-02
   maximum displ.:     0.2142851 α      in ANC's #16, #18, #7, ...

........................................................................
.............................. CYCLE    4 ..............................
........................................................................

 iter      E             dE          RMSdq      gap      omega  full diag
   1   -127.4791211 -0.127479E+03  0.165E-01    2.21       0.0  T
   2   -127.4791598 -0.386934E-04  0.845E-02    2.23       1.0  T
   3   -127.4791346  0.252572E-04  0.278E-02    2.24       1.0  T
   4   -127.4791659 -0.313242E-04  0.107E-02    2.24       1.0  T
   5   -127.4791699 -0.399226E-05  0.440E-03    2.24       2.5  T
   6   -127.4791707 -0.840772E-06  0.247E-03    2.24       4.4  T
   7   -127.4791711 -0.318182E-06  0.102E-03    2.24      10.7  T
   8   -127.4791711 -0.194903E-07  0.565E-04    2.24      19.4  T
   9   -127.4791711 -0.732575E-08  0.296E-04    2.24      37.1  T
     SCC iter.                  ...        0 min,  1.205 sec
     gradient                   ...        0 min,  0.115 sec
 * total energy  :  -125.3088063 Eh     change       -0.2352714E-02 Eh
   gradient norm :     0.0165376 Eh/α   predicted    -0.1863248E-02 ( -20.80%)
   displ. norm   :     0.4682106 α      lambda       -0.2238065E-02
   maximum displ.:     0.2605756 α      in ANC's #16, #7, #18, ...

........................................................................
.............................. CYCLE    5 ..............................
........................................................................

 iter      E             dE          RMSdq      gap      omega  full diag
   1   -127.4797689 -0.127480E+03  0.115E-01    2.26       0.0  T
   2   -127.4797968 -0.279241E-04  0.654E-02    2.26       1.0  T
   3   -127.4797721  0.247333E-04  0.268E-02    2.27       1.0  T
   4   -127.4798045 -0.324199E-04  0.728E-03    2.27       1.5  T
   5   -127.4798061 -0.158307E-05  0.341E-03    2.27       3.2  T
   6   -127.4798065 -0.414536E-06  0.146E-03    2.27       7.5  T
   7   -127.4798065 -0.600581E-07  0.708E-04    2.27      15.5  T
   8   -127.4798065 -0.960985E-08  0.299E-04    2.27      36.7  T
     SCC iter.                  ...        0 min,  1.115 sec
     gradient                   ...        0 min,  0.119 sec
 * total energy  :  -125.3103753 Eh     change       -0.1569018E-02 Eh
   gradient norm :     0.0111745 Eh/α   predicted    -0.1364350E-02 ( -13.04%)
   displ. norm   :     0.4401998 α      lambda       -0.1254726E-02
   maximum displ.:     0.2340689 α      in ANC's #16, #7, #3, ...

........................................................................
.............................. CYCLE    6 ..............................
........................................................................

 iter      E             dE          RMSdq      gap      omega  full diag
   1   -127.4782006 -0.127478E+03  0.988E-02    2.25       0.0  T
   2   -127.4782130 -0.123411E-04  0.527E-02    2.26       1.0  T
   3   -127.4782082  0.477481E-05  0.158E-02    2.26       1.0  T
   4   -127.4782138 -0.560380E-05  0.751E-03    2.26       1.5  T
   5   -127.4782154 -0.163529E-05  0.255E-03    2.26       4.3  T
   6   -127.4782157 -0.256714E-06  0.131E-03    2.26       8.4  T
   7   -127.4782158 -0.100183E-06  0.624E-04    2.26      17.6  T
   8   -127.4782158 -0.105110E-07  0.358E-04    2.26      30.6  T
     SCC iter.                  ...        0 min,  0.958 sec
     gradient                   ...        0 min,  0.116 sec
 * total energy  :  -125.3112617 Eh     change       -0.8863884E-03 Eh
   gradient norm :     0.0085322 Eh/α   predicted    -0.7489344E-03 ( -15.51%)
   displ. norm   :     0.4195897 α      lambda       -0.8665852E-03
   maximum displ.:     0.1743652 α      in ANC's #16, #3, #7, ...

........................................................................
.............................. CYCLE    7 ..............................
........................................................................

 iter      E             dE          RMSdq      gap      omega  full diag
   1   -127.4796362 -0.127480E+03  0.782E-02    2.26       0.0  T
   2   -127.4796422 -0.597435E-05  0.443E-02    2.26       1.0  T
   3   -127.4796380  0.420376E-05  0.117E-02    2.26       1.0  T
   4   -127.4796432 -0.524376E-05  0.442E-03    2.26       2.5  T
   5   -127.4796437 -0.425655E-06  0.175E-03    2.26       6.3  T
   6   -127.4796438 -0.107640E-06  0.908E-04    2.26      12.1  T
   7   -127.4796438 -0.321300E-07  0.558E-04    2.26      19.7  T
     SCC iter.                  ...        0 min,  0.936 sec
     gradient                   ...        0 min,  0.116 sec
 * total energy  :  -125.3118901 Eh     change       -0.6284753E-03 Eh
   gradient norm :     0.0096809 Eh/α   predicted    -0.5095787E-03 ( -18.92%)
   displ. norm   :     0.4111139 α      lambda       -0.6698857E-03
   maximum displ.:     0.1992697 α      in ANC's #3, #7, #16, ...

........................................................................
.............................. CYCLE    8 ..............................
........................................................................

 iter      E             dE          RMSdq      gap      omega  full diag
   1   -127.4822480 -0.127482E+03  0.732E-02    2.27       0.0  T
   2   -127.4822507 -0.268331E-05  0.417E-02    2.27       1.0  T
   3   -127.4822470  0.370582E-05  0.914E-03    2.27       1.2  T
   4   -127.4822513 -0.424050E-05  0.337E-03    2.27       3.3  T
   5   -127.4822516 -0.302487E-06  0.146E-03    2.27       7.5  T
   6   -127.4822517 -0.150112E-06  0.583E-04    2.27      18.8  T
   7   -127.4822517 -0.138648E-07  0.329E-04    2.27      33.4  T
     SCC iter.                  ...        0 min,  1.028 sec
     gradient                   ...        0 min,  0.119 sec
 * total energy  :  -125.3124000 Eh     change       -0.5098560E-03 Eh
   gradient norm :     0.0088640 Eh/α   predicted    -0.3915638E-03 ( -23.20%)
   displ. norm   :     0.4357019 α      lambda       -0.5876964E-03
   maximum displ.:     0.2298128 α      in ANC's #3, #7, #5, ...

........................................................................
.............................. CYCLE    9 ..............................
........................................................................

 iter      E             dE          RMSdq      gap      omega  full diag
   1   -127.4838881 -0.127484E+03  0.823E-02    2.28       0.0  T
   2   -127.4838944 -0.628149E-05  0.447E-02    2.28       1.0  T
   3   -127.4838893  0.506418E-05  0.125E-02    2.28       1.0  T
   4   -127.4838947 -0.541680E-05  0.590E-03    2.28       1.9  T
   5   -127.4838959 -0.114924E-05  0.215E-03    2.28       5.1  T
   6   -127.4838962 -0.342158E-06  0.812E-04    2.28      13.5  T
   7   -127.4838963 -0.538263E-07  0.294E-04    2.28      37.4  T
     SCC iter.                  ...        0 min,  1.109 sec
     gradient                   ...        0 min,  0.115 sec
 * total energy  :  -125.3128589 Eh     change       -0.4589215E-03 Eh
   gradient norm :     0.0064221 Eh/α   predicted    -0.3496393E-03 ( -23.81%)
   displ. norm   :     0.4539374 α      lambda       -0.5099837E-03
   maximum displ.:     0.2489074 α      in ANC's #3, #7, #11, ...

........................................................................
.............................. CYCLE   10 ..............................
........................................................................

 iter      E             dE          RMSdq      gap      omega  full diag
   1   -127.4847860 -0.127485E+03  0.903E-02    2.30       0.0  T
   2   -127.4847926 -0.665908E-05  0.474E-02    2.30       1.0  T
   3   -127.4847901  0.250616E-05  0.123E-02    2.30       1.0  T
   4   -127.4847921 -0.199002E-05  0.672E-03    2.30       1.6  T
   5   -127.4847940 -0.189425E-05  0.198E-03    2.30       5.5  T
   6   -127.4847943 -0.291772E-06  0.841E-04    2.30      13.0  T
   7   -127.4847943 -0.354955E-07  0.467E-04    2.30      23.5  T
     SCC iter.                  ...        0 min,  0.933 sec
     gradient                   ...        0 min,  0.121 sec
 * total energy  :  -125.3132527 Eh     change       -0.3937439E-03 Eh
   gradient norm :     0.0051705 Eh/α   predicted    -0.3075363E-03 ( -21.89%)
   displ. norm   :     0.4320298 α      lambda       -0.3833404E-03
   maximum displ.:     0.2443102 α      in ANC's #3, #7, #11, ...

........................................................................
.............................. CYCLE   11 ..............................
........................................................................

 iter      E             dE          RMSdq      gap      omega  full diag
   1   -127.4835965 -0.127484E+03  0.876E-02    2.30       0.0  T
   2   -127.4836031 -0.652371E-05  0.459E-02    2.30       1.0  T
   3   -127.4836002  0.282820E-05  0.122E-02    2.30       1.0  T
   4   -127.4836025 -0.229506E-05  0.671E-03    2.30       1.6  T
   5   -127.4836044 -0.188827E-05  0.200E-03    2.30       5.5  T
   6   -127.4836048 -0.355329E-06  0.699E-04    2.30      15.7  T
   7   -127.4836048 -0.287836E-07  0.314E-04    2.30      35.0  T
     SCC iter.                  ...        0 min,  0.943 sec
     gradient                   ...        0 min,  0.130 sec
 * total energy  :  -125.3135430 Eh     change       -0.2903425E-03 Eh
   gradient norm :     0.0056823 Eh/α   predicted    -0.2274465E-03 ( -21.66%)
   displ. norm   :     0.3709493 α      lambda       -0.2703837E-03
   maximum displ.:     0.2167410 α      in ANC's #3, #11, #7, ...

........................................................................
.............................. CYCLE   12 ..............................
........................................................................

 iter      E             dE          RMSdq      gap      omega  full diag
   1   -127.4834351 -0.127483E+03  0.818E-02    2.32       0.0  T
   2   -127.4834405 -0.536494E-05  0.413E-02    2.32       1.0  T
   3   -127.4834396  0.943774E-06  0.107E-02    2.32       1.0  T
   4   -127.4834399 -0.353937E-06  0.594E-03    2.32       1.8  T
   5   -127.4834416 -0.168780E-05  0.131E-03    2.32       8.4  T
   6   -127.4834418 -0.145687E-06  0.526E-04    2.32      20.9  T
   7   -127.4834418 -0.138290E-07  0.238E-04    2.32      46.0  T
     SCC iter.                  ...        0 min,  0.929 sec
     gradient                   ...        0 min,  0.116 sec
 * total energy  :  -125.3137493 Eh     change       -0.2062413E-03 Eh
   gradient norm :     0.0053422 Eh/α   predicted    -0.1537976E-03 ( -25.43%)
   displ. norm   :     0.3314455 α      lambda       -0.2124840E-03
   maximum displ.:     0.1994133 α      in ANC's #3, #11, #5, ...

........................................................................
.............................. CYCLE   13 ..............................
........................................................................

 iter      E             dE          RMSdq      gap      omega  full diag
   1   -127.4833534 -0.127483E+03  0.697E-02    2.32       0.0  T
   2   -127.4833571 -0.369791E-05  0.364E-02    2.33       1.0  T
   3   -127.4833554  0.166585E-05  0.945E-03    2.33       1.2  T
   4   -127.4833566 -0.112137E-05  0.535E-03    2.33       2.1  T
   5   -127.4833580 -0.140315E-05  0.139E-03    2.33       7.9  T
   6   -127.4833581 -0.160761E-06  0.578E-04    2.33      19.0  T
   7   -127.4833581 -0.147552E-07  0.323E-04    2.33      33.9  T
     SCC iter.                  ...        0 min,  1.000 sec
     gradient                   ...        0 min,  0.121 sec
 * total energy  :  -125.3139147 Eh     change       -0.1654295E-03 Eh
   gradient norm :     0.0039200 Eh/α   predicted    -0.1179176E-03 ( -28.72%)
   displ. norm   :     0.3145895 α      lambda       -0.1838911E-03
   maximum displ.:     0.1925920 α      in ANC's #3, #19, #10, ...

........................................................................
.............................. CYCLE   14 ..............................
........................................................................

 iter      E             dE          RMSdq      gap      omega  full diag
   1   -127.4840622 -0.127484E+03  0.670E-02    2.34       0.0  T
   2   -127.4840652 -0.301055E-05  0.350E-02    2.34       1.0  T
   3   -127.4840637  0.149566E-05  0.897E-03    2.34       1.2  T
   4   -127.4840648 -0.109014E-05  0.494E-03    2.34       2.2  T
   5   -127.4840660 -0.121139E-05  0.108E-03    2.34      10.2  T
   6   -127.4840661 -0.880646E-07  0.507E-04    2.34      21.7  T
   7   -127.4840661 -0.804056E-08  0.308E-04    2.34      35.6  T
     SCC iter.                  ...        0 min,  1.082 sec
     gradient                   ...        0 min,  0.118 sec
 * total energy  :  -125.3140557 Eh     change       -0.1410190E-03 Eh
   gradient norm :     0.0031152 Eh/α   predicted    -0.1010452E-03 ( -28.35%)
   displ. norm   :     0.2915770 α      lambda       -0.1389608E-03
   maximum displ.:     0.1813664 α      in ANC's #3, #10, #5, ...

........................................................................
.............................. CYCLE   15 ..............................
........................................................................

 iter      E             dE          RMSdq      gap      omega  full diag
   1   -127.4843781 -0.127484E+03  0.591E-02    2.34       0.0  T
   2   -127.4843800 -0.189833E-05  0.323E-02    2.35       1.0  T
   3   -127.4843777  0.224367E-05  0.815E-03    2.35       1.3  T
   4   -127.4843801 -0.231557E-05  0.392E-03    2.35       2.8  T
   5   -127.4843806 -0.594010E-06  0.103E-03    2.35      10.7  T
   6   -127.4843807 -0.772103E-07  0.509E-04    2.35      21.6  T
   7   -127.4843807 -0.711564E-08  0.322E-04    2.35      34.1  T
     SCC iter.                  ...        0 min,  0.995 sec
     gradient                   ...        0 min,  0.117 sec
 * total energy  :  -125.3141620 Eh     change       -0.1063284E-03 Eh
   gradient norm :     0.0035225 Eh/α   predicted    -0.7538858E-04 ( -29.10%)
   displ. norm   :     0.2494023 α      lambda       -0.1024946E-03
   maximum displ.:     0.1567768 α      in ANC's #3, #12, #10, ...

........................................................................
.............................. CYCLE   16 ..............................
........................................................................

 iter      E             dE          RMSdq      gap      omega  full diag
   1   -127.4850193 -0.127485E+03  0.496E-02    2.35       0.0  T
   2   -127.4850203 -0.105860E-05  0.279E-02    2.35       1.0  T
   3   -127.4850187  0.165963E-05  0.638E-03    2.35       1.7  T
   4   -127.4850205 -0.183430E-05  0.267E-03    2.35       4.1  T
   5   -127.4850207 -0.243716E-06  0.682E-04    2.35      16.1  T
   6   -127.4850208 -0.308397E-07  0.322E-04    2.35      34.0  T
     SCC iter.                  ...        0 min,  0.785 sec
     gradient                   ...        0 min,  0.117 sec
 * total energy  :  -125.3142420 Eh     change       -0.7995786E-04 Eh
   gradient norm :     0.0033201 Eh/α   predicted    -0.5443592E-04 ( -31.92%)
   displ. norm   :     0.2291781 α      lambda       -0.8541563E-04
   maximum displ.:     0.1443249 α      in ANC's #3, #12, #6, ...

........................................................................
.............................. CYCLE   17 ..............................
........................................................................

 iter      E             dE          RMSdq      gap      omega  full diag
   1   -127.4853829 -0.127485E+03  0.436E-02    2.35       0.0  T
   2   -127.4853836 -0.674809E-06  0.252E-02    2.35       1.0  T
   3   -127.4853822  0.145832E-05  0.531E-03    2.35       2.1  T
   4   -127.4853838 -0.167011E-05  0.169E-03    2.35       6.5  T
   5   -127.4853839 -0.691282E-07  0.632E-04    2.35      17.4  T
   6   -127.4853839 -0.260956E-07  0.288E-04    2.35      38.1  T
     SCC iter.                  ...        0 min,  0.708 sec
     gradient                   ...        0 min,  0.124 sec
 * total energy  :  -125.3143096 Eh     change       -0.6761139E-04 Eh
   gradient norm :     0.0025222 Eh/α   predicted    -0.4495504E-04 ( -33.51%)
   displ. norm   :     0.2239464 α      lambda       -0.7687226E-04
   maximum displ.:     0.1385158 α      in ANC's #3, #6, #12, ...

........................................................................
.............................. CYCLE   18 ..............................
........................................................................

 iter      E             dE          RMSdq      gap      omega  full diag
   1   -127.4856773 -0.127486E+03  0.403E-02    2.35       0.0  T
   2   -127.4856778 -0.486856E-06  0.235E-02    2.35       1.0  T
   3   -127.4856767  0.108073E-05  0.434E-03    2.35       2.5  T
   4   -127.4856779 -0.126520E-05  0.113E-03    2.35       9.7  T
   5   -127.4856780 -0.243529E-07  0.495E-04    2.35      22.2  T
   6   -127.4856780 -0.116195E-07  0.223E-04    2.35      49.2  T
     SCC iter.                  ...        0 min,  0.707 sec
     gradient                   ...        0 min,  0.117 sec
 * total energy  :  -125.3143714 Eh     change       -0.6176715E-04 Eh
   gradient norm :     0.0021746 Eh/α   predicted    -0.4036849E-04 ( -34.64%)
   displ. norm   :     0.2429009 α      lambda       -0.7717039E-04
   maximum displ.:     0.1462691 α      in ANC's #3, #6, #4, ...

........................................................................
.............................. CYCLE   19 ..............................
........................................................................

 iter      E             dE          RMSdq      gap      omega  full diag
   1   -127.4857240 -0.127486E+03  0.416E-02    2.35       0.0  T
   2   -127.4857244 -0.459225E-06  0.242E-02    2.35       1.0  T
   3   -127.4857233  0.112326E-05  0.437E-03    2.35       2.5  T
   4   -127.4857246 -0.132206E-05  0.108E-03    2.35      10.2  T
   5   -127.4857246 -0.126472E-07  0.519E-04    2.35      21.1  T
   6   -127.4857247 -0.157668E-07  0.229E-04    2.35      47.9  T
     SCC iter.                  ...        0 min,  0.701 sec
     gradient                   ...        0 min,  0.116 sec
 * total energy  :  -125.3144335 Eh     change       -0.6212247E-04 Eh
   gradient norm :     0.0026504 Eh/α   predicted    -0.4086456E-04 ( -34.22%)
   displ. norm   :     0.2695221 α      lambda       -0.7830176E-04
   maximum displ.:     0.1580274 α      in ANC's #3, #6, #4, ...

........................................................................
.............................. CYCLE   20 ..............................
........................................................................

 iter      E             dE          RMSdq      gap      omega  full diag
   1   -127.4856983 -0.127486E+03  0.449E-02    2.35       0.0  T
   2   -127.4856988 -0.447955E-06  0.261E-02    2.35       1.0  T
   3   -127.4856976  0.121533E-05  0.443E-03    2.35       2.5  T
   4   -127.4856990 -0.143238E-05  0.108E-03    2.35      10.2  T
   5   -127.4856990  0.477016E-09  0.602E-04    2.35      18.2  T
   6   -127.4856990 -0.266055E-07  0.222E-04    2.35      49.4  T
     SCC iter.                  ...        0 min,  0.887 sec
     gradient                   ...        0 min,  0.117 sec
 * total energy  :  -125.3144952 Eh     change       -0.6172989E-04 Eh
   gradient norm :     0.0029940 Eh/α   predicted    -0.4199639E-04 ( -31.97%)
   displ. norm   :     0.2717936 α      lambda       -0.6963876E-04
   maximum displ.:     0.1567990 α      in ANC's #3, #7, #4, ...
 * RMSD in coord.:     0.5600894 α      energy gain  -0.3838140E-01 Eh

generating ANC from exact Hessian ...
Using Lindh-Hessian (1995)
 Shifting diagonal of input Hessian by    9.8659128568663809E-003
 Lowest  eigenvalues of input Hessian
    0.000000    0.000000    0.000000    0.000000    0.000000    0.000000
    0.010000    0.010080    0.010269    0.010282    0.010367    0.010531
    0.010637    0.010826    0.011093    0.011262    0.011477    0.011614
 Highest eigenvalues
    2.029779    2.064311    2.072701    2.090688    2.123946    2.125943


........................................................................
.............................. CYCLE   21 ..............................
........................................................................

 iter      E             dE          RMSdq      gap      omega  full diag
   1   -127.4856740 -0.127486E+03  0.450E-02    2.35       0.0  T
   2   -127.4856745 -0.428322E-06  0.261E-02    2.35       1.0  T
   3   -127.4856732  0.126903E-05  0.443E-03    2.35       2.5  T
   4   -127.4856747 -0.145817E-05  0.120E-03    2.35       9.2  T
   5   -127.4856747 -0.106335E-07  0.716E-04    2.35      15.3  T
   6   -127.4856747 -0.395545E-07  0.244E-04    2.35      45.0  T
     SCC iter.                  ...        0 min,  0.929 sec
     gradient                   ...        0 min,  0.120 sec
 * total energy  :  -125.3145483 Eh     change       -0.5308402E-04 Eh
   gradient norm :     0.0026618 Eh/α   predicted     0.0000000E+00 (-100.00%)
   displ. norm   :     0.0359813 α      lambda       -0.1353931E-04
   maximum displ.:     0.0192652 α      in ANC's #12, #10, #7, ...

........................................................................
.............................. CYCLE   22 ..............................
........................................................................

 iter      E             dE          RMSdq      gap      omega  full diag
   1   -127.4859282 -0.127486E+03  0.913E-03    2.35       0.0  T
   2   -127.4859283 -0.892181E-07  0.509E-03    2.35       2.2  T
   3   -127.4859282  0.869044E-07  0.149E-03    2.35       7.4  T
   4   -127.4859283 -0.837442E-07  0.704E-04    2.35      15.6  T
   5   -127.4859283 -0.234461E-07  0.301E-04    2.35      36.4  T
     SCC iter.                  ...        0 min,  0.543 sec
     gradient                   ...        0 min,  0.113 sec
 * total energy  :  -125.3145671 Eh     change       -0.1882067E-04 Eh
   gradient norm :     0.0015640 Eh/α   predicted    -0.1094688E-04 ( -41.84%)
   displ. norm   :     0.2138059 α      lambda       -0.6213244E-04
   maximum displ.:     0.1032259 α      in ANC's #12, #10, #7, ...

........................................................................
.............................. CYCLE   23 ..............................
........................................................................

 iter      E             dE          RMSdq      gap      omega  full diag
   1   -127.4863575 -0.127486E+03  0.482E-02    2.36       0.0  T
   2   -127.4863583 -0.810976E-06  0.279E-02    2.36       1.0  T
   3   -127.4863550  0.336106E-05  0.648E-03    2.36       1.7  T
   4   -127.4863586 -0.360492E-05  0.206E-03    2.36       5.3  T
   5   -127.4863588 -0.175603E-06  0.978E-04    2.36      11.2  T
   6   -127.4863588 -0.725658E-07  0.337E-04    2.36      32.5  T
     SCC iter.                  ...        0 min,  0.705 sec
     gradient                   ...        0 min,  0.115 sec
 * total energy  :  -125.3146035 Eh     change       -0.3640470E-04 Eh
   gradient norm :     0.0036118 Eh/α   predicted    -0.3170440E-04 ( -12.91%)
   displ. norm   :     0.0355916 α      lambda       -0.2140698E-04
   maximum displ.:     0.0149149 α      in ANC's #4, #8, #12, ...

........................................................................
.............................. CYCLE   24 ..............................
........................................................................

 iter      E             dE          RMSdq      gap      omega  full diag
   1   -127.4862918 -0.127486E+03  0.129E-02    2.36       0.0  T
   2   -127.4862922 -0.390743E-06  0.616E-03    2.36       1.8  T
   3   -127.4862922  0.766778E-08  0.204E-03    2.36       5.4  T
   4   -127.4862922 -0.168298E-07  0.111E-03    2.36       9.9  T
   5   -127.4862923 -0.398343E-07  0.488E-04    2.36      22.5  T
   6   -127.4862923 -0.326499E-08  0.256E-04    2.36      42.8  T
     SCC iter.                  ...        0 min,  0.711 sec
     gradient                   ...        0 min,  0.120 sec
 * total energy  :  -125.3146183 Eh     change       -0.1477467E-04 Eh
   gradient norm :     0.0026816 Eh/α   predicted    -0.1072808E-04 ( -27.39%)
   displ. norm   :     0.0705241 α      lambda       -0.3112709E-04
   maximum displ.:     0.0326001 α      in ANC's #4, #8, #10, ...

........................................................................
.............................. CYCLE   25 ..............................
........................................................................

 iter      E             dE          RMSdq      gap      omega  full diag
   1   -127.4861308 -0.127486E+03  0.155E-02    2.35       0.0  T
   2   -127.4861309 -0.136687E-06  0.896E-03    2.35       1.2  T
   3   -127.4861307  0.215954E-06  0.190E-03    2.35       5.8  T
   4   -127.4861309 -0.252391E-06  0.649E-04    2.35      16.9  T
   5   -127.4861310 -0.131282E-07  0.241E-04    2.35      45.6  T
     SCC iter.                  ...        0 min,  0.596 sec
     gradient                   ...        0 min,  0.121 sec
 * total energy  :  -125.3146405 Eh     change       -0.2221301E-04 Eh
   gradient norm :     0.0011629 Eh/α   predicted    -0.1564534E-04 ( -29.57%)
   displ. norm   :     0.1824144 α      lambda       -0.2587866E-04
   maximum displ.:     0.0833260 α      in ANC's #4, #8, #10, ...

........................................................................
.............................. CYCLE   26 ..............................
........................................................................

 iter      E             dE          RMSdq      gap      omega  full diag
   1   -127.4856322 -0.127486E+03  0.381E-02    2.35       0.0  T
   2   -127.4856329 -0.693155E-06  0.214E-02    2.35       1.0  T
   3   -127.4856317  0.124528E-05  0.494E-03    2.35       2.2  T
   4   -127.4856330 -0.137402E-05  0.180E-03    2.35       6.1  T
   5   -127.4856331 -0.918800E-07  0.871E-04    2.35      12.6  T
   6   -127.4856332 -0.651292E-07  0.250E-04    2.35      44.0  T
     SCC iter.                  ...        0 min,  0.799 sec
     gradient                   ...        0 min,  0.121 sec
 * total energy  :  -125.3146659 Eh     change       -0.2537626E-04 Eh
   gradient norm :     0.0025367 Eh/α   predicted    -0.1313110E-04 ( -48.25%)
   displ. norm   :     0.1274979 α      lambda       -0.2160253E-04
   maximum displ.:     0.0579635 α      in ANC's #4, #8, #10, ...

........................................................................
.............................. CYCLE   27 ..............................
........................................................................

 iter      E             dE          RMSdq      gap      omega  full diag
   1   -127.4855892 -0.127486E+03  0.245E-02    2.35       0.0  T
   2   -127.4855893 -0.149048E-06  0.143E-02    2.35       1.0  T
   3   -127.4855886  0.672223E-06  0.271E-03    2.35       4.1  T
   4   -127.4855894 -0.735596E-06  0.717E-04    2.35      15.3  T
   5   -127.4855894 -0.263017E-07  0.360E-04    2.35      30.5  T
     SCC iter.                  ...        0 min,  0.684 sec
     gradient                   ...        0 min,  0.120 sec
 * total energy  :  -125.3146843 Eh     change       -0.1842427E-04 Eh
   gradient norm :     0.0022329 Eh/α   predicted    -0.1097698E-04 ( -40.42%)
   displ. norm   :     0.2519050 α      lambda       -0.3873920E-04
   maximum displ.:     0.1160308 α      in ANC's #4, #8, #10, ...

........................................................................
.............................. CYCLE   28 ..............................
........................................................................

 iter      E             dE          RMSdq      gap      omega  full diag
   1   -127.4856238 -0.127486E+03  0.489E-02    2.36       0.0  T
   2   -127.4856246 -0.840934E-06  0.280E-02    2.36       1.0  T
   3   -127.4856215  0.306561E-05  0.658E-03    2.36       1.7  T
   4   -127.4856249 -0.332519E-05  0.206E-03    2.36       5.3  T
   5   -127.4856250 -0.143735E-06  0.107E-03    2.36      10.3  T
   6   -127.4856251 -0.931687E-07  0.284E-04    2.36      38.7  T
   7   -127.4856251 -0.165362E-08  0.171E-04    2.36      64.1  T
     SCC iter.                  ...        0 min,  1.031 sec
     gradient                   ...        0 min,  0.118 sec
 * total energy  :  -125.3147115 Eh     change       -0.2718426E-04 Eh
   gradient norm :     0.0012829 Eh/α   predicted    -0.2059924E-04 ( -24.22%)
   displ. norm   :     0.2614664 α      lambda       -0.1764801E-04
   maximum displ.:     0.1243319 α      in ANC's #4, #8, #7, ...

........................................................................
.............................. CYCLE   29 ..............................
........................................................................

 iter      E             dE          RMSdq      gap      omega  full diag
   1   -127.4859943 -0.127486E+03  0.483E-02    2.36       0.0  T
   2   -127.4859950 -0.658653E-06  0.281E-02    2.36       1.0  T
   3   -127.4859918  0.313001E-05  0.609E-03    2.36       1.8  T
   4   -127.4859953 -0.345684E-05  0.147E-03    2.36       7.5  T
   5   -127.4859954 -0.774340E-07  0.853E-04    2.36      12.9  T
   6   -127.4859954 -0.527017E-07  0.272E-04    2.36      40.3  T
     SCC iter.                  ...        0 min,  0.786 sec
     gradient                   ...        0 min,  0.120 sec
 * total energy  :  -125.3147277 Eh     change       -0.1623199E-04 Eh
   gradient norm :     0.0011816 Eh/α   predicted    -0.9095411E-05 ( -43.97%)
   displ. norm   :     0.2562134 α      lambda        0.7235456E-05
   maximum displ.:     0.1217825 α      in ANC's #4, #8, #7, ...

........................................................................
.............................. CYCLE   30 ..............................
........................................................................

 iter      E             dE          RMSdq      gap      omega  full diag
   1   -127.4857283 -0.127486E+03  0.473E-02    2.36       0.0  T
   2   -127.4857289 -0.639489E-06  0.275E-02    2.36       1.0  T
   3   -127.4857259  0.299485E-05  0.591E-03    2.36       1.9  T
   4   -127.4857292 -0.330028E-05  0.146E-03    2.36       7.5  T
   5   -127.4857293 -0.814346E-07  0.833E-04    2.36      13.2  T
   6   -127.4857294 -0.492971E-07  0.276E-04    2.36      39.7  T
     SCC iter.                  ...        0 min,  0.755 sec
     gradient                   ...        0 min,  0.116 sec
 * total energy  :  -125.3147233 Eh     change        0.4478892E-05 Eh
   gradient norm :     0.0022690 Eh/α   predicted     0.3719746E-05 ( -16.95%)
   displ. norm   :     0.0906045 α      lambda       -0.1625786E-04
   maximum displ.:     0.0377787 α      in ANC's #4, #8, #10, ...

........................................................................
.............................. CYCLE   31 ..............................
........................................................................

 iter      E             dE          RMSdq      gap      omega  full diag
   1   -127.4866235 -0.127487E+03  0.182E-02    2.36       0.0  T
   2   -127.4866236 -0.911998E-07  0.107E-02    2.36       1.0  T
   3   -127.4866232  0.349145E-06  0.190E-03    2.36       5.8  T
   4   -127.4866236 -0.381609E-06  0.525E-04    2.36      20.9  T
   5   -127.4866236 -0.172021E-07  0.242E-04    2.36      45.3  T
     SCC iter.                  ...        0 min,  0.561 sec
     gradient                   ...        0 min,  0.118 sec
 * total energy  :  -125.3147359 Eh     change       -0.1265517E-04 Eh
   gradient norm :     0.0013936 Eh/α   predicted    -0.8195965E-05 ( -35.24%)
   displ. norm   :     0.1058012 α      lambda       -0.1633100E-04
   maximum displ.:     0.0535013 α      in ANC's #12, #10, #9, ...

........................................................................
.............................. CYCLE   32 ..............................
........................................................................

 iter      E             dE          RMSdq      gap      omega  full diag
   1   -127.4871857 -0.127487E+03  0.242E-02    2.36       0.0  T
   2   -127.4871859 -0.188409E-06  0.141E-02    2.36       1.0  T
   3   -127.4871855  0.354875E-06  0.221E-03    2.36       5.0  T
   4   -127.4871859 -0.378848E-06  0.926E-04    2.36      11.9  T
   5   -127.4871860 -0.453060E-07  0.398E-04    2.36      27.6  T
     SCC iter.                  ...        0 min,  0.570 sec
     gradient                   ...        0 min,  0.115 sec
 * total energy  :  -125.3147507 Eh     change       -0.1475090E-04 Eh
   gradient norm :     0.0008453 Eh/α   predicted    -0.8209479E-05 ( -44.35%)
   displ. norm   :     0.0800796 α      lambda       -0.7585738E-05
   maximum displ.:     0.0351403 α      in ANC's #12, #4, #1, ...

........................................................................
.............................. CYCLE   33 ..............................
........................................................................

 iter      E             dE          RMSdq      gap      omega  full diag
   1   -127.4871374 -0.127487E+03  0.138E-02    2.36       0.0  T
   2   -127.4871375 -0.702820E-07  0.806E-03    2.36       1.4  T
   3   -127.4871371  0.450438E-06  0.230E-03    2.36       4.8  T
   4   -127.4871376 -0.497505E-06  0.516E-04    2.36      21.3  T
   5   -127.4871376 -0.806897E-08  0.276E-04    2.36      39.8  T
     SCC iter.                  ...        0 min,  0.690 sec
     gradient                   ...        0 min,  0.129 sec
 * total energy  :  -125.3147607 Eh     change       -0.1000460E-04 Eh
   gradient norm :     0.0009162 Eh/α   predicted    -0.3804811E-05 ( -61.97%)
   displ. norm   :     0.2688021 α      lambda       -0.1955924E-04
   maximum displ.:     0.1133862 α      in ANC's #4, #5, #1, ...

........................................................................
.............................. CYCLE   34 ..............................
........................................................................

 iter      E             dE          RMSdq      gap      omega  full diag
   1   -127.4859654 -0.127486E+03  0.447E-02    2.36       0.0  T
   2   -127.4859661 -0.765379E-06  0.261E-02    2.36       1.0  T
   3   -127.4859617  0.439718E-05  0.745E-03    2.36       1.5  T
   4   -127.4859666 -0.485212E-05  0.185E-03    2.36       5.9  T
   5   -127.4859667 -0.106601E-06  0.988E-04    2.36      11.1  T
   6   -127.4859667 -0.646564E-07  0.357E-04    2.36      30.8  T
     SCC iter.                  ...        0 min,  0.611 sec
     gradient                   ...        0 min,  0.116 sec
 * total energy  :  -125.3147797 Eh     change       -0.1899950E-04 Eh
   gradient norm :     0.0008286 Eh/α   predicted    -0.1009493E-04 ( -46.87%)
   displ. norm   :     0.1594292 α      lambda       -0.6679623E-05
   maximum displ.:     0.0684461 α      in ANC's #4, #1, #5, ...

........................................................................
.............................. CYCLE   35 ..............................
........................................................................

 iter      E             dE          RMSdq      gap      omega  full diag
   1   -127.4861751 -0.127486E+03  0.252E-02    2.36       0.0  T
   2   -127.4861753 -0.244633E-06  0.145E-02    2.36       1.0  T
   3   -127.4861743  0.106706E-05  0.385E-03    2.36       2.9  T
   4   -127.4861754 -0.116574E-05  0.121E-03    2.36       9.1  T
   5   -127.4861755 -0.396393E-07  0.605E-04    2.36      18.1  T
   6   -127.4861755 -0.288767E-07  0.179E-04    2.36      61.3  T
     SCC iter.                  ...        0 min,  0.866 sec
     gradient                   ...        0 min,  0.125 sec
 * total energy  :  -125.3147870 Eh     change       -0.7377730E-05 Eh
   gradient norm :     0.0006083 Eh/α   predicted    -0.3380662E-05 ( -54.18%)
   displ. norm   :     0.1403702 α      lambda       -0.6780217E-05
   maximum displ.:     0.0626335 α      in ANC's #1, #5, #4, ...

........................................................................
.............................. CYCLE   36 ..............................
........................................................................

 iter      E             dE          RMSdq      gap      omega  full diag
   1   -127.4864362 -0.127486E+03  0.218E-02    2.36       0.0  T
   2   -127.4864365 -0.275746E-06  0.123E-02    2.36       1.0  T
   3   -127.4864358  0.742445E-06  0.364E-03    2.36       3.0  T
   4   -127.4864365 -0.782475E-06  0.140E-03    2.36       7.8  T
   5   -127.4864366 -0.748868E-07  0.630E-04    2.36      17.4  T
   6   -127.4864367 -0.314200E-07  0.196E-04    2.36      56.0  T
     SCC iter.                  ...        0 min,  0.860 sec
     gradient                   ...        0 min,  0.120 sec
 * total energy  :  -125.3147956 Eh     change       -0.8545642E-05 Eh
   gradient norm :     0.0004840 Eh/α   predicted    -0.3424702E-05 ( -59.92%)
   displ. norm   :     0.1701790 α      lambda       -0.1049035E-04
   maximum displ.:     0.0841379 α      in ANC's #1, #5, #8, ...

........................................................................
.............................. CYCLE   37 ..............................
........................................................................

 iter      E             dE          RMSdq      gap      omega  full diag
   1   -127.4868570 -0.127487E+03  0.268E-02    2.36       0.0  T
   2   -127.4868575 -0.495588E-06  0.145E-02    2.37       1.0  T
   3   -127.4868569  0.570091E-06  0.394E-03    2.36       2.8  T
   4   -127.4868574 -0.482311E-06  0.211E-03    2.37       5.2  T
   5   -127.4868576 -0.223755E-06  0.716E-04    2.37      15.3  T
   6   -127.4868577 -0.409602E-07  0.235E-04    2.37      46.7  T
     SCC iter.                  ...        0 min,  0.745 sec
     gradient                   ...        0 min,  0.116 sec
 * total energy  :  -125.3148076 Eh     change       -0.1204508E-04 Eh
   gradient norm :     0.0006634 Eh/α   predicted    -0.5315125E-05 ( -55.87%)
   displ. norm   :     0.1652463 α      lambda       -0.8436932E-05
   maximum displ.:     0.0877807 α      in ANC's #1, #5, #8, ...

........................................................................
.............................. CYCLE   38 ..............................
........................................................................

 iter      E             dE          RMSdq      gap      omega  full diag
   1   -127.4868839 -0.127487E+03  0.253E-02    2.37       0.0  T
   2   -127.4868845 -0.512831E-06  0.135E-02    2.37       1.0  T
   3   -127.4868840  0.496961E-06  0.383E-03    2.37       2.9  T
   4   -127.4868844 -0.447118E-06  0.202E-03    2.37       5.4  T
   5   -127.4868846 -0.179906E-06  0.725E-04    2.37      15.1  T
   6   -127.4868846 -0.441558E-07  0.219E-04    2.37      50.1  T
     SCC iter.                  ...        0 min,  0.727 sec
     gradient                   ...        0 min,  0.120 sec
 * total energy  :  -125.3148166 Eh     change       -0.8936578E-05 Eh
   gradient norm :     0.0007127 Eh/α   predicted    -0.4270561E-05 ( -52.21%)
   displ. norm   :     0.1024901 α      lambda       -0.4929067E-05
   maximum displ.:     0.0594006 α      in ANC's #1, #5, #2, ...

........................................................................
.............................. CYCLE   39 ..............................
........................................................................

 iter      E             dE          RMSdq      gap      omega  full diag
   1   -127.4869599 -0.127487E+03  0.152E-02    2.37       0.0  T
   2   -127.4869601 -0.194797E-06  0.805E-03    2.37       1.4  T
   3   -127.4869599  0.144427E-06  0.221E-03    2.37       5.0  T
   4   -127.4869601 -0.123104E-06  0.122E-03    2.37       9.0  T
   5   -127.4869601 -0.662820E-07  0.437E-04    2.37      25.1  T
   6   -127.4869601 -0.154187E-07  0.139E-04    2.37      78.8  T
     SCC iter.                  ...        0 min,  0.761 sec
     gradient                   ...        0 min,  0.118 sec
 * total energy  :  -125.3148223 Eh     change       -0.5709489E-05 Eh
   gradient norm :     0.0005281 Eh/α   predicted    -0.2478582E-05 ( -56.59%)
   displ. norm   :     0.0834926 α      lambda       -0.4618505E-05
   maximum displ.:     0.0495147 α      in ANC's #1, #5, #2, ...

........................................................................
.............................. CYCLE   40 ..............................
........................................................................

 iter      E             dE          RMSdq      gap      omega  full diag
   1   -127.4870623 -0.127487E+03  0.127E-02    2.37       0.0  T
   2   -127.4870624 -0.923284E-07  0.694E-03    2.37       1.6  T
   3   -127.4870624  0.352387E-07  0.140E-03    2.37       7.9  T
   4   -127.4870624 -0.287289E-07  0.765E-04    2.37      14.3  T
   5   -127.4870624 -0.283832E-07  0.222E-04    2.37      49.4  T
     SCC iter.                  ...        0 min,  0.657 sec
     gradient                   ...        0 min,  0.117 sec
 * total energy  :  -125.3148280 Eh     change       -0.5760410E-05 Eh
   gradient norm :     0.0003687 Eh/α   predicted    -0.2317355E-05 ( -59.77%)
   displ. norm   :     0.0930327 α      lambda       -0.5467162E-05
   maximum displ.:     0.0552278 α      in ANC's #1, #2, #5, ...

........................................................................
.............................. CYCLE   41 ..............................
........................................................................

 iter      E             dE          RMSdq      gap      omega  full diag
   1   -127.4867542 -0.127487E+03  0.138E-02    2.37       0.0  T
   2   -127.4867542 -0.786504E-07  0.787E-03    2.37       1.4  T
   3   -127.4867541  0.963533E-07  0.151E-03    2.37       7.3  T
   4   -127.4867543 -0.113459E-06  0.588E-04    2.37      18.7  T
   5   -127.4867543 -0.109068E-07  0.182E-04    2.37      60.2  T
     SCC iter.                  ...        0 min,  0.572 sec
     gradient                   ...        0 min,  0.117 sec
 * total energy  :  -125.3148347 Eh     change       -0.6616885E-05 Eh
   gradient norm :     0.0004145 Eh/α   predicted    -0.2746627E-05 ( -58.49%)
   displ. norm   :     0.0893554 α      lambda       -0.4856122E-05
   maximum displ.:     0.0531647 α      in ANC's #1, #2, #4, ...

........................................................................
.............................. CYCLE   42 ..............................
........................................................................

 iter      E             dE          RMSdq      gap      omega  full diag
   1   -127.4866836 -0.127487E+03  0.128E-02    2.36       0.0  T
   2   -127.4866836 -0.482537E-07  0.737E-03    2.36       1.5  T
   3   -127.4866836  0.608925E-07  0.108E-03    2.36      10.2  T
   4   -127.4866836 -0.710436E-07  0.438E-04    2.36      25.1  T
   5   -127.4866836 -0.634874E-08  0.178E-04    2.36      61.6  T
     SCC iter.                  ...        0 min,  0.549 sec
     gradient                   ...        0 min,  0.121 sec
 * total energy  :  -125.3148408 Eh     change       -0.6105870E-05 Eh
   gradient norm :     0.0005440 Eh/α   predicted    -0.2438737E-05 ( -60.06%)
   displ. norm   :     0.0869198 α      lambda       -0.5050522E-05
   maximum displ.:     0.0530484 α      in ANC's #1, #2, #4, ...
 * RMSD in coord.:     0.2318743 α      energy gain  -0.3455428E-03 Eh

generating ANC from exact Hessian ...
Using Lindh-Hessian (1995)
 Shifting diagonal of input Hessian by    9.8577562270199225E-003
 Lowest  eigenvalues of input Hessian
    0.000000    0.000000    0.000000    0.000000    0.000000    0.000000
    0.010000    0.010077    0.010264    0.010272    0.010398    0.010528
    0.010666    0.010837    0.011168    0.011269    0.011502    0.011648
 Highest eigenvalues
    2.029132    2.062999    2.072295    2.093550    2.126038    2.126744


........................................................................
.............................. CYCLE   43 ..............................
........................................................................

 iter      E             dE          RMSdq      gap      omega  full diag
   1   -127.4865676 -0.127487E+03  0.113E-02    2.36       0.0  T
   2   -127.4865676 -0.344201E-07  0.653E-03    2.36       1.7  T
   3   -127.4865676  0.361370E-07  0.891E-04    2.36      12.3  T
   4   -127.4865676 -0.423418E-07  0.379E-04    2.36      28.9  T
     SCC iter.                  ...        0 min,  0.520 sec
     gradient                   ...        0 min,  0.116 sec
 * total energy  :  -125.3148475 Eh     change       -0.6716816E-05 Eh
   gradient norm :     0.0005720 Eh/α   predicted     0.0000000E+00 (-100.00%)
   displ. norm   :     0.0199704 α      lambda       -0.2465809E-05
   maximum displ.:     0.0130791 α      in ANC's #1, #2, #4, ...

........................................................................
.............................. CYCLE   44 ..............................
........................................................................

 iter      E             dE          RMSdq      gap      omega  full diag
   1   -127.4867761 -0.127487E+03  0.382E-03    2.36       0.0  T
   2   -127.4867761 -0.126093E-07  0.208E-03    2.36       5.3  T
   3   -127.4867761  0.977072E-08  0.548E-04    2.36      20.0  T
   4   -127.4867761 -0.951690E-08  0.253E-04    2.36      43.4  T
     SCC iter.                  ...        0 min,  0.542 sec
     gradient                   ...        0 min,  0.117 sec
 * total energy  :  -125.3148509 Eh     change       -0.3410019E-05 Eh
   gradient norm :     0.0003388 Eh/α   predicted    -0.1285465E-05 ( -62.30%)
   displ. norm   :     0.0729459 α      lambda       -0.7570418E-05
   maximum displ.:     0.0428427 α      in ANC's #1, #2, #4, ...

........................................................................
.............................. CYCLE   45 ..............................
........................................................................

 iter      E             dE          RMSdq      gap      omega  full diag
   1   -127.4869777 -0.127487E+03  0.116E-02    2.36       0.0  T
   2   -127.4869777 -0.758272E-07  0.663E-03    2.36       1.7  T
   3   -127.4869776  0.916046E-07  0.146E-03    2.36       7.5  T
   4   -127.4869778 -0.110404E-06  0.464E-04    2.36      23.7  T
   5   -127.4869778 -0.679309E-08  0.185E-04    2.36      59.2  T
     SCC iter.                  ...        0 min,  0.641 sec
     gradient                   ...        0 min,  0.119 sec
 * total energy  :  -125.3148586 Eh     change       -0.7755928E-05 Eh
   gradient norm :     0.0005694 Eh/α   predicted    -0.3794564E-05 ( -51.08%)
   displ. norm   :     0.0714427 α      lambda       -0.4849059E-05
   maximum displ.:     0.0436489 α      in ANC's #1, #2, #4, ...

........................................................................
.............................. CYCLE   46 ..............................
........................................................................

 iter      E             dE          RMSdq      gap      omega  full diag
   1   -127.4867803 -0.127487E+03  0.131E-02    2.36       0.0  T
   2   -127.4867804 -0.187243E-06  0.678E-03    2.36       1.6  T
   3   -127.4867804  0.113154E-07  0.180E-03    2.36       6.1  T
   4   -127.4867805 -0.258126E-07  0.794E-04    2.36      13.8  T
   5   -127.4867805 -0.143022E-07  0.282E-04    2.36      39.0  T
     SCC iter.                  ...        0 min,  0.762 sec
     gradient                   ...        0 min,  0.115 sec
 * total energy  :  -125.3148631 Eh     change       -0.4418169E-05 Eh
   gradient norm :     0.0007745 Eh/α   predicted    -0.2430607E-05 ( -44.99%)
   displ. norm   :     0.0600819 α      lambda       -0.3934436E-05
   maximum displ.:     0.0369268 α      in ANC's #1, #2, #4, ...

........................................................................
.............................. CYCLE   47 ..............................
........................................................................

 iter      E             dE          RMSdq      gap      omega  full diag
   1   -127.4868354 -0.127487E+03  0.842E-03    2.36       0.0  T
   2   -127.4868354 -0.658567E-07  0.475E-03    2.36       2.3  T
   3   -127.4868354  0.824456E-07  0.146E-03    2.36       7.5  T
   4   -127.4868355 -0.881755E-07  0.520E-04    2.36      21.1  T
   5   -127.4868355 -0.110851E-07  0.276E-04    2.36      39.8  T
     SCC iter.                  ...        0 min,  0.608 sec
     gradient                   ...        0 min,  0.120 sec
 * total energy  :  -125.3148674 Eh     change       -0.4328158E-05 Eh
   gradient norm :     0.0006794 Eh/α   predicted    -0.1971097E-05 ( -54.46%)
   displ. norm   :     0.0928858 α      lambda       -0.6599009E-05
   maximum displ.:     0.0564137 α      in ANC's #1, #2, #4, ...

........................................................................
.............................. CYCLE   48 ..............................
........................................................................

 iter      E             dE          RMSdq      gap      omega  full diag
   1   -127.4870699 -0.127487E+03  0.127E-02    2.36       0.0  T
   2   -127.4870700 -0.119277E-06  0.711E-03    2.36       1.5  T
   3   -127.4870699  0.175319E-06  0.209E-03    2.36       5.2  T
   4   -127.4870701 -0.201104E-06  0.693E-04    2.36      15.8  T
   5   -127.4870701 -0.139279E-07  0.295E-04    2.36      37.2  T
     SCC iter.                  ...        0 min,  0.699 sec
     gradient                   ...        0 min,  0.118 sec
 * total energy  :  -125.3148754 Eh     change       -0.8022813E-05 Eh
   gradient norm :     0.0004659 Eh/α   predicted    -0.3314781E-05 ( -58.68%)
   displ. norm   :     0.1555646 α      lambda       -0.9785826E-05
   maximum displ.:     0.0957547 α      in ANC's #1, #2, #3, ...

........................................................................
.............................. CYCLE   49 ..............................
........................................................................

 iter      E             dE          RMSdq      gap      omega  full diag
   1   -127.4868725 -0.127487E+03  0.215E-02    2.35       0.0  T
   2   -127.4868727 -0.201648E-06  0.120E-02    2.35       1.0  T
   3   -127.4868724  0.278263E-06  0.287E-03    2.35       3.8  T
   4   -127.4868728 -0.318355E-06  0.105E-03    2.35      10.5  T
   5   -127.4868728 -0.298298E-07  0.368E-04    2.35      29.9  T
   6   -127.4868728 -0.102434E-07  0.149E-04    2.35      73.7  T
     SCC iter.                  ...        0 min,  0.776 sec
     gradient                   ...        0 min,  0.115 sec
 * total energy  :  -125.3148866 Eh     change       -0.1119884E-04 Eh
   gradient norm :     0.0007524 Eh/α   predicted    -0.4946145E-05 ( -55.83%)
   displ. norm   :     0.1425926 α      lambda       -0.6801473E-05
   maximum displ.:     0.0906598 α      in ANC's #1, #2, #3, ...

........................................................................
.............................. CYCLE   50 ..............................
........................................................................

 iter      E             dE          RMSdq      gap      omega  full diag
   1   -127.4866417 -0.127487E+03  0.192E-02    2.35       0.0  T
   2   -127.4866419 -0.160974E-06  0.108E-02    2.35       1.0  T
   3   -127.4866417  0.157705E-06  0.221E-03    2.35       5.0  T
   4   -127.4866419 -0.142841E-06  0.108E-03    2.35      10.1  T
   5   -127.4866419 -0.573738E-07  0.352E-04    2.35      31.2  T
   6   -127.4866420 -0.914412E-08  0.164E-04    2.35      66.9  T
     SCC iter.                  ...        0 min,  0.955 sec
     gradient                   ...        0 min,  0.116 sec
 * total energy  :  -125.3148946 Eh     change       -0.7958031E-05 Eh
   gradient norm :     0.0008254 Eh/α   predicted    -0.3432811E-05 ( -56.86%)
   displ. norm   :     0.1022425 α      lambda       -0.5060537E-05
   maximum displ.:     0.0675541 α      in ANC's #1, #2, #3, ...

........................................................................
.............................. CYCLE   51 ..............................
........................................................................

 iter      E             dE          RMSdq      gap      omega  full diag
   1   -127.4867502 -0.127487E+03  0.129E-02    2.35       0.0  T
   2   -127.4867502 -0.681282E-07  0.729E-03    2.35       1.5  T
   3   -127.4867502  0.636631E-07  0.140E-03    2.35       7.8  T
   4   -127.4867502 -0.635328E-07  0.659E-04    2.35      16.7  T
   5   -127.4867503 -0.190053E-07  0.231E-04    2.35      47.5  T
     SCC iter.                  ...        0 min,  0.663 sec
     gradient                   ...        0 min,  0.116 sec
 * total energy  :  -125.3149013 Eh     change       -0.6691149E-05 Eh
   gradient norm :     0.0005635 Eh/α   predicted    -0.2543948E-05 ( -61.98%)
   displ. norm   :     0.0961849 α      lambda       -0.5989181E-05
   maximum displ.:     0.0645681 α      in ANC's #1, #2, #3, ...

........................................................................
.............................. CYCLE   52 ..............................
........................................................................

 iter      E             dE          RMSdq      gap      omega  full diag
   1   -127.4868250 -0.127487E+03  0.111E-02    2.34       0.0  T
   2   -127.4868251 -0.494252E-07  0.640E-03    2.34       1.7  T
   3   -127.4868251  0.440026E-07  0.111E-03    2.34       9.9  T
   4   -127.4868251 -0.511812E-07  0.464E-04    2.34      23.7  T
   5   -127.4868251 -0.834955E-08  0.143E-04    2.34      76.7  T
     SCC iter.                  ...        0 min,  0.556 sec
     gradient                   ...        0 min,  0.115 sec
 * total energy  :  -125.3149095 Eh     change       -0.8218506E-05 Eh
   gradient norm :     0.0003397 Eh/α   predicted    -0.3007915E-05 ( -63.40%)
   displ. norm   :     0.1345386 α      lambda       -0.8843374E-05
   maximum displ.:     0.0894319 α      in ANC's #1, #2, #3, ...

........................................................................
.............................. CYCLE   53 ..............................
........................................................................

 iter      E             dE          RMSdq      gap      omega  full diag
   1   -127.4868283 -0.127487E+03  0.156E-02    2.34       0.0  T
   2   -127.4868284 -0.109592E-06  0.889E-03    2.34       1.2  T
   3   -127.4868283  0.927565E-07  0.164E-03    2.34       6.7  T
   4   -127.4868284 -0.101601E-06  0.744E-04    2.34      14.8  T
   5   -127.4868285 -0.214962E-07  0.244E-04    2.34      45.1  T
     SCC iter.                  ...        0 min,  0.736 sec
     gradient                   ...        0 min,  0.117 sec
 * total energy  :  -125.3149214 Eh     change       -0.1190802E-04 Eh
   gradient norm :     0.0006935 Eh/α   predicted    -0.4460845E-05 ( -62.54%)
   displ. norm   :     0.1871624 α      lambda       -0.1138640E-04
   maximum displ.:     0.1236752 α      in ANC's #1, #2, #3, ...

........................................................................
.............................. CYCLE   54 ..............................
........................................................................

 iter      E             dE          RMSdq      gap      omega  full diag
   1   -127.4867862 -0.127487E+03  0.218E-02    2.34       0.0  T
   2   -127.4867864 -0.211644E-06  0.124E-02    2.34       1.0  T
   3   -127.4867862  0.187500E-06  0.235E-03    2.34       4.7  T
   4   -127.4867864 -0.208653E-06  0.107E-03    2.34      10.3  T
   5   -127.4867865 -0.441424E-07  0.285E-04    2.34      38.5  T
   6   -127.4867865 -0.419203E-08  0.127E-04    2.34      86.1  T
     SCC iter.                  ...        0 min,  0.904 sec
     gradient                   ...        0 min,  0.120 sec
 * total energy  :  -125.3149365 Eh     change       -0.1511461E-04 Eh
   gradient norm :     0.0010292 Eh/α   predicted    -0.5783514E-05 ( -61.74%)
   displ. norm   :     0.2200429 α      lambda       -0.1229813E-04
   maximum displ.:     0.1457625 α      in ANC's #1, #2, #3, ...

........................................................................
.............................. CYCLE   55 ..............................
........................................................................

 iter      E             dE          RMSdq      gap      omega  full diag
   1   -127.4866709 -0.127487E+03  0.254E-02    2.34       0.0  T
   2   -127.4866712 -0.289333E-06  0.144E-02    2.34       1.0  T
   3   -127.4866708  0.304332E-06  0.279E-03    2.34       3.9  T
   4   -127.4866712 -0.317866E-06  0.132E-03    2.34       8.3  T
   5   -127.4866712 -0.700223E-07  0.445E-04    2.34      24.7  T
   6   -127.4866713 -0.152299E-07  0.182E-04    2.34      60.2  T
     SCC iter.                  ...        0 min,  0.957 sec
     gradient                   ...        0 min,  0.126 sec
 * total energy  :  -125.3149530 Eh     change       -0.1648624E-04 Eh
   gradient norm :     0.0010737 Eh/α   predicted    -0.6284338E-05 ( -61.88%)
   displ. norm   :     0.2379951 α      lambda       -0.1302284E-04
   maximum displ.:     0.1587954 α      in ANC's #1, #2, #3, ...

........................................................................
.............................. CYCLE   56 ..............................
........................................................................

 iter      E             dE          RMSdq      gap      omega  full diag
   1   -127.4865967 -0.127487E+03  0.271E-02    2.33       0.0  T
   2   -127.4865971 -0.325845E-06  0.153E-02    2.33       1.0  T
   3   -127.4865967  0.341596E-06  0.293E-03    2.33       3.7  T
   4   -127.4865971 -0.363509E-06  0.137E-03    2.33       8.0  T
   5   -127.4865972 -0.744243E-07  0.463E-04    2.33      23.7  T
   6   -127.4865972 -0.155908E-07  0.193E-04    2.33      56.9  T
     SCC iter.                  ...        0 min,  0.703 sec
     gradient                   ...        0 min,  0.115 sec
 * total energy  :  -125.3149708 Eh     change       -0.1784780E-04 Eh
   gradient norm :     0.0008406 Eh/α   predicted    -0.6677913E-05 ( -62.58%)
   displ. norm   :     0.2551957 α      lambda       -0.1439777E-04
   maximum displ.:     0.1719926 α      in ANC's #1, #2, #3, ...

........................................................................
.............................. CYCLE   57 ..............................
........................................................................

 iter      E             dE          RMSdq      gap      omega  full diag
   1   -127.4865145 -0.127487E+03  0.284E-02    2.33       0.0  T
   2   -127.4865149 -0.352589E-06  0.161E-02    2.33       1.0  T
   3   -127.4865144  0.423273E-06  0.310E-03    2.33       3.5  T
   4   -127.4865149 -0.462940E-06  0.137E-03    2.33       8.0  T
   5   -127.4865150 -0.696058E-07  0.493E-04    2.33      22.2  T
   6   -127.4865150 -0.179645E-07  0.203E-04    2.33      54.1  T
     SCC iter.                  ...        0 min,  0.754 sec
     gradient                   ...        0 min,  0.116 sec
 * total energy  :  -125.3149908 Eh     change       -0.2000111E-04 Eh
   gradient norm :     0.0004782 Eh/α   predicted    -0.7409302E-05 ( -62.96%)
   displ. norm   :     0.2675551 α      lambda       -0.1576924E-04
   maximum displ.:     0.1824098 α      in ANC's #1, #2, #3, ...

........................................................................
.............................. CYCLE   58 ..............................
........................................................................

 iter      E             dE          RMSdq      gap      omega  full diag
   1   -127.4864690 -0.127486E+03  0.290E-02    2.33       0.0  T
   2   -127.4864694 -0.349048E-06  0.165E-02    2.33       1.0  T
   3   -127.4864690  0.407445E-06  0.303E-03    2.33       3.6  T
   4   -127.4864694 -0.452959E-06  0.132E-03    2.33       8.3  T
   5   -127.4864695 -0.630317E-07  0.484E-04    2.33      22.7  T
   6   -127.4864695 -0.155073E-07  0.207E-04    2.33      53.1  T
     SCC iter.                  ...        0 min,  0.779 sec
     gradient                   ...        0 min,  0.122 sec
 * total energy  :  -125.3150126 Eh     change       -0.2178388E-04 Eh
   gradient norm :     0.0003590 Eh/α   predicted    -0.8137065E-05 ( -62.65%)
   displ. norm   :     0.2583377 α      lambda       -0.1558031E-04
   maximum displ.:     0.1786013 α      in ANC's #1, #2, #3, ...

........................................................................
.............................. CYCLE   59 ..............................
........................................................................

 iter      E             dE          RMSdq      gap      omega  full diag
   1   -127.4865088 -0.127487E+03  0.275E-02    2.33       0.0  T
   2   -127.4865091 -0.292012E-06  0.157E-02    2.33       1.0  T
   3   -127.4865087  0.389743E-06  0.284E-03    2.33       3.9  T
   4   -127.4865092 -0.448016E-06  0.113E-03    2.33       9.7  T
   5   -127.4865092 -0.409752E-07  0.425E-04    2.33      25.8  T
   6   -127.4865092 -0.105422E-07  0.191E-04    2.33      57.5  T
     SCC iter.                  ...        0 min,  0.777 sec
     gradient                   ...        0 min,  0.116 sec
 * total energy  :  -125.3150340 Eh     change       -0.2133499E-04 Eh
   gradient norm :     0.0005614 Eh/α   predicted    -0.8024285E-05 ( -62.39%)
   displ. norm   :     0.2163605 α      lambda       -0.1320441E-04
   maximum displ.:     0.1523776 α      in ANC's #1, #2, #3, ...

........................................................................
.............................. CYCLE   60 ..............................
[...]
    15   6 C        2.915    -0.047    29.179     8.858
    16   6 C        2.920    -0.033    28.827     8.805
    17   6 C        2.987     0.013    27.715     8.636
    18   6 C        2.920    -0.030    28.761     8.794
    19   6 C        2.915    -0.022    28.558     8.763
    20   6 C        2.917    -0.023    28.570     8.765
    21   6 C        2.917    -0.031    28.779     8.797
    22   6 C        2.988     0.013    27.727     8.638
    23   7 N        2.683    -0.131    23.841     7.252
    24   6 C        3.790    -0.029    21.109     6.543
    25  15 P        4.695     0.296   147.752    21.835
    26  16 S        1.904    -0.055   143.315    20.149
    27  16 S        2.112    -0.050   143.109    20.134
    28   6 C        2.973     0.037    27.167     8.550
    29   6 C        2.962    -0.032    28.804     8.803
    30   6 C        2.922    -0.024    28.596     8.769
    31   6 C        2.919    -0.022    28.564     8.764
    32   6 C        2.922    -0.023    28.591     8.769
    33   6 C        2.952    -0.030    28.756     8.795
    34   7 N        2.692    -0.125    23.711     7.232
    35   6 C        3.097     0.053    26.703     8.469
    36   6 C        2.921    -0.040    29.003     8.831
    37   6 C        2.921    -0.026    28.642     8.776
    38   6 C        2.919    -0.023    28.588     8.768
    39   6 C        2.924    -0.033    28.824     8.804
    40   6 C        2.976     0.005    27.913     8.666
    41   6 C        3.809    -0.056    21.573     6.612
    42   6 C        3.813    -0.058    21.616     6.618
    43   6 C        2.964     0.003    27.963     8.674
    44   6 C        2.933    -0.037    28.920     8.820
    45   6 C        2.918    -0.027    28.683     8.782
    46   6 C        2.920    -0.028    28.693     8.784
    47   6 C        2.927    -0.049    29.217     8.864
    48   6 C        3.091     0.058    26.599     8.453
    49   1 H        0.925     0.070     2.084     2.258
    50   1 H        0.925     0.076     2.018     2.221
    51   1 H        0.924     0.058     2.223     2.332
    52   1 H        0.926     0.049     2.331     2.387
    53   1 H        0.926     0.054     2.273     2.357
    54   1 H        0.926     0.048     2.341     2.393
    55   1 H        0.926     0.050     2.317     2.380
    56   1 H        0.926     0.047     2.361     2.403
    57   1 H        0.926     0.037     2.491     2.468
    58   1 H        0.926     0.036     2.497     2.471
    59   1 H        0.926     0.052     2.301     2.372
    60   1 H        0.926     0.047     2.352     2.398
    61   1 H        0.926     0.052     2.297     2.370
    62   1 H        0.926     0.049     2.327     2.385
    63   1 H        0.926     0.040     2.444     2.445
    64   1 H        0.924     0.058     2.218     2.329
    65   1 H        0.924     0.062     2.172     2.304
    66   1 H        0.925     0.059     2.207     2.323
    67   1 H        0.926     0.048     2.341     2.393
    68   1 H        0.926     0.052     2.297     2.370
    69   1 H        0.926     0.058     2.224     2.332
    70   1 H        0.926     0.058     2.220     2.330
    71   1 H        0.926     0.053     2.277     2.360
    72   1 H        0.926     0.044     2.396     2.421
    73   1 H        0.926     0.058     2.225     2.333
    74   1 H        0.926     0.060     2.198     2.318
    75   1 H        0.926     0.055     2.262     2.352
    76   1 H        0.924     0.035     2.518     2.481
    77   1 H        0.924     0.052     2.293     2.368
    78   1 H        0.924     0.060     2.200     2.319
    79   1 H        0.924     0.055     2.255     2.348
    80   1 H        0.926     0.052     2.294     2.369
    81   1 H        0.926     0.055     2.254     2.348
    82   1 H        0.926     0.049     2.337     2.390
    83   1 H        0.926     0.044     2.399     2.422

 Mol. C6AA /au·bohr⁶  :     104966.288280
 Mol. C8AA /au·bohr⁸  :    2874626.294810
 Mol. α(0) /au        :        524.494912


Wiberg/Mayer (AO) data.
largest (>0.10) Wiberg bond orders for each atom

 ---------------------------------------------------------------------------
     #   Z sym  total        # sym  WBO       # sym  WBO       # sym  WBO
 ---------------------------------------------------------------------------
     1   6 C    3.958 --    50 H    0.977    51 H    0.973     2 N    0.970
                            49 H    0.961
     2   7 N    3.447 --    25 P    1.227     3 C    0.980     1 C    0.970
     3   6 C    3.946 --    12 C    1.455     4 C    1.284     2 N    0.980
     4   6 C    3.988 --     5 C    1.558     3 C    1.284    52 H    0.964
     5   6 C    3.984 --     4 C    1.558     6 C    1.270    53 H    0.966
                            12 C    0.105
     6   6 C    3.988 --     7 C    1.282     5 C    1.270    11 C    1.254
     7   6 C    3.988 --     8 C    1.553     6 C    1.282    54 H    0.967
                            10 C    0.117
     8   6 C    3.986 --     7 C    1.553     9 C    1.324    55 H    0.969
     9   6 C    3.990 --    10 C    1.551     8 C    1.324    56 H    0.970
    10   6 C    3.989 --     9 C    1.551    11 C    1.286    57 H    0.965
                             7 C    0.117
    11   6 C    3.987 --    10 C    1.286     6 C    1.254    12 C    1.231
    12   6 C    3.986 --     3 C    1.455    11 C    1.231    13 C    1.033
                             5 C    0.105
    13   6 C    3.985 --    14 C    1.457    22 C    1.230    12 C    1.033
                            16 C    0.104
    14   6 C    3.948 --    13 C    1.457    15 C    1.288    23 N    0.953
    15   6 C    3.987 --    16 C    1.558    14 C    1.288    58 H    0.962
    16   6 C    3.984 --    15 C    1.558    17 C    1.270    59 H    0.966
                            13 C    0.104
    17   6 C    3.988 --    18 C    1.283    16 C    1.270    22 C    1.254
    18   6 C    3.988 --    19 C    1.552    17 C    1.283    60 H    0.967
                            21 C    0.117
    19   6 C    3.986 --    18 C    1.552    20 C    1.325    61 H    0.969
    20   6 C    3.989 --    21 C    1.550    19 C    1.325    62 H    0.970
    21   6 C    3.988 --    20 C    1.550    22 C    1.287    63 H    0.965
                            18 C    0.117
    22   6 C    3.987 --    21 C    1.287    17 C    1.254    13 C    1.230
    23   7 N    3.399 --    25 P    1.220    24 C    0.973    14 C    0.953
    24   6 C    3.960 --    65 H    0.976    23 N    0.973    64 H    0.973
                            66 H    0.966
    25  15 P    5.160 --     2 N    1.227    23 N    1.220    34 N    1.213
                            26 S    1.032
    26  16 S    2.481 --    27 S    1.140    25 P    1.032
    27  16 S    2.315 --    26 S    1.140    28 C    0.976
    28   6 C    3.954 --    29 C    1.407    33 C    1.406    27 S    0.976
                            31 C    0.103
    29   6 C    3.990 --    30 C    1.437    28 C    1.407    67 H    0.964
                            32 C    0.109
    30   6 C    3.991 --    31 C    1.439    29 C    1.437    68 H    0.968
                            33 C    0.110
    31   6 C    3.982 --    30 C    1.439    32 C    1.433    69 H    0.969
                            28 C    0.103
    32   6 C    3.990 --    33 C    1.444    31 C    1.433    70 H    0.967
                            29 C    0.109
    33   6 C    3.989 --    32 C    1.444    28 C    1.406    71 H    0.967
                            30 C    0.110
    34   7 N    3.432 --    25 P    1.213    48 C    0.962    35 C    0.952
    35   6 C    3.949 --    36 C    1.401    40 C    1.368    34 N    0.952
                            38 C    0.103
    36   6 C    3.988 --    37 C    1.440    35 C    1.401    72 H    0.960
                            39 C    0.108
    37   6 C    3.988 --    36 C    1.440    38 C    1.435    73 H    0.969
                            40 C    0.106
    38   6 C    3.985 --    39 C    1.443    37 C    1.435    74 H    0.968
                            35 C    0.103
    39   6 C    3.989 --    38 C    1.443    40 C    1.413    75 H    0.967
                            36 C    0.108
    40   6 C    3.985 --    39 C    1.413    35 C    1.368    41 C    1.016
                            37 C    0.106
    41   6 C    3.997 --    40 C    1.016    42 C    0.989    77 H    0.974
                            76 H    0.956
    42   6 C    3.995 --    43 C    1.013    41 C    0.989    79 H    0.963
                            78 H    0.957
    43   6 C    3.985 --    44 C    1.396    48 C    1.380    42 C    1.013
                            46 C    0.106
    44   6 C    3.988 --    45 C    1.460    43 C    1.396    80 H    0.967
                            47 C    0.108
    45   6 C    3.987 --    44 C    1.460    46 C    1.418    81 H    0.969
    46   6 C    3.990 --    47 C    1.455    45 C    1.418    82 H    0.969
                            43 C    0.106
    47   6 C    3.988 --    46 C    1.455    48 C    1.380    83 H    0.955
                            44 C    0.108
    48   6 C    3.947 --    47 C    1.380    43 C    1.380    34 N    0.962
    49   1 H    0.994 --     1 C    0.961
    50   1 H    0.994 --     1 C    0.977
    51   1 H    0.996 --     1 C    0.973
    52   1 H    0.997 --     4 C    0.964
    53   1 H    0.996 --     5 C    0.966
    54   1 H    0.997 --     7 C    0.967
    55   1 H    0.997 --     8 C    0.969
    56   1 H    0.997 --     9 C    0.970
    57   1 H    0.998 --    10 C    0.965
    58   1 H    0.997 --    15 C    0.962
    59   1 H    0.996 --    16 C    0.966
    60   1 H    0.997 --    18 C    0.967
    61   1 H    0.996 --    19 C    0.969
    62   1 H    0.997 --    20 C    0.970
    63   1 H    0.998 --    21 C    0.965
    64   1 H    0.996 --    24 C    0.973
    65   1 H    0.995 --    24 C    0.976
    66   1 H    0.996 --    24 C    0.966
    67   1 H    0.998 --    29 C    0.964
    68   1 H    0.997 --    30 C    0.968
    69   1 H    0.996 --    31 C    0.969
    70   1 H    0.997 --    32 C    0.967
    71   1 H    0.997 --    33 C    0.967
    72   1 H    0.998 --    36 C    0.960
    73   1 H    0.995 --    37 C    0.969
    74   1 H    0.996 --    38 C    0.968
    75   1 H    0.996 --    39 C    0.967
    76   1 H    0.999 --    41 C    0.956
    77   1 H    0.996 --    41 C    0.974
    78   1 H    0.996 --    42 C    0.957
    79   1 H    0.996 --    42 C    0.963
    80   1 H    0.997 --    44 C    0.967
    81   1 H    0.996 --    45 C    0.969
    82   1 H    0.997 --    46 C    0.969
    83   1 H    0.998 --    47 C    0.955
 ---------------------------------------------------------------------------

Topologies differ in total number of bonds
Writing topology from bond orders to xtbtopo.mol

molecular dipole:
                 x           y           z       tot (Debye)
 q only:       -0.679       0.003       0.055
   full:       -0.802       0.107      -0.064       2.064
molecular quadrupole (traceless):
                xx          xy          yy          xz          yz          zz
 q only:       15.301       9.536       0.128      -1.887       5.046     -15.429
  q+dip:       19.477       8.666      -7.868       1.904       4.808     -11.609
   full:       14.742       9.010      -0.150       0.700       5.146     -14.592

           -------------------------------------------------
          |                Geometry Summary                 |
           -------------------------------------------------

      molecular mass/u    :      676.8522805
   center of mass at/Å    :       -0.0767753       0.0682929       0.2545566
  moments of inertia/u·Å² :        0.5862247E+04   0.7337254E+04   0.1054015E+05
rotational constants/cm⁻¹ :        0.2875626E-02   0.2297540E-02   0.1599373E-02

 * 87 selected distances

     #   Z          #   Z                                           value/Å
     1   6 C        2   7 N                                       1.4586897
     2   7 N        3   6 C                                       1.4272906
     3   6 C        4   6 C                                       1.4079609
     4   6 C        5   6 C                                       1.3641458
     5   6 C        6   6 C                                       1.4111205
     6   6 C        7   6 C                                       1.4099646
     7   6 C        8   6 C                                       1.3667249
     8   6 C        9   6 C                                       1.4027861
     9   6 C       10   6 C                                       1.3676836
     6   6 C       11   6 C                                       1.4199202
    10   6 C       11   6 C                                       1.4111847
     3   6 C       12   6 C                                       1.3781577
    11   6 C       12   6 C                                       1.4248854
    13   6 C       14   6 C                                       1.3752118
    14   6 C       15   6 C                                       1.4050985
    15   6 C       16   6 C                                       1.3634063
    16   6 C       17   6 C                                       1.4107682
    17   6 C       18   6 C                                       1.4096956
    18   6 C       19   6 C                                       1.3669637
    19   6 C       20   6 C                                       1.4026855
    20   6 C       21   6 C                                       1.3677048
    13   6 C       22   6 C                                       1.4237076
    17   6 C       22   6 C                                       1.4196570
    21   6 C       22   6 C                                       1.4106816
    14   6 C       23   7 N                                       1.4352086
    23   7 N       24   6 C                                       1.4546502
     2   7 N       25  15 P                                       1.6568722
    23   7 N       25  15 P                                       1.6551622
    25  15 P       26  16 S                                       2.1093419 (max)
    26  16 S       27  16 S                                       2.0573758
    28   6 C       29   6 C                                       1.3854364
    29   6 C       30   6 C                                       1.3844230
    30   6 C       31   6 C                                       1.3856539
    31   6 C       32   6 C                                       1.3865193
    28   6 C       33   6 C                                       1.3859085
    32   6 C       33   6 C                                       1.3835267
    25  15 P       34   7 N                                       1.6537083
    34   7 N       35   6 C                                       1.4349885
    35   6 C       36   6 C                                       1.3866061
    36   6 C       37   6 C                                       1.3834399
    37   6 C       38   6 C                                       1.3843978
    38   6 C       39   6 C                                       1.3834986
    35   6 C       40   6 C                                       1.3913169
    39   6 C       40   6 C                                       1.3868850
    41   6 C       42   6 C                                       1.5306956
    43   6 C       44   6 C                                       1.3951099
    44   6 C       45   6 C                                       1.3791825
    45   6 C       46   6 C                                       1.3841399
    46   6 C       47   6 C                                       1.3792676
    34   7 N       48   6 C                                       1.4346583
    43   6 C       48   6 C                                       1.3952836
    47   6 C       48   6 C                                       1.3930375
     1   6 C       49   1 H                                       1.0901669
     1   6 C       50   1 H                                       1.0892876
     1   6 C       51   1 H                                       1.0933465
     4   6 C       52   1 H                                       1.0777438 (min)
     5   6 C       53   1 H                                       1.0791903
     7   6 C       54   1 H                                       1.0797686
     8   6 C       55   1 H                                       1.0790079
     9   6 C       56   1 H                                       1.0793034
    10   6 C       57   1 H                                       1.0791304
    15   6 C       58   1 H                                       1.0788517
    16   6 C       59   1 H                                       1.0790315
    18   6 C       60   1 H                                       1.0797512
    19   6 C       61   1 H                                       1.0790695
    20   6 C       62   1 H                                       1.0792293
    21   6 C       63   1 H                                       1.0792347
    24   6 C       64   1 H                                       1.0910130
    24   6 C       65   1 H                                       1.0917308
    24   6 C       66   1 H                                       1.0894167
    29   6 C       67   1 H                                       1.0780378
    30   6 C       68   1 H                                       1.0792411
    31   6 C       69   1 H                                       1.0789238
    32   6 C       70   1 H                                       1.0788562
    33   6 C       71   1 H                                       1.0800462
    36   6 C       72   1 H                                       1.0788063
    37   6 C       73   1 H                                       1.0784126
    38   6 C       74   1 H                                       1.0785414
    39   6 C       75   1 H                                       1.0795032
    41   6 C       76   1 H                                       1.0943405
    41   6 C       77   1 H                                       1.0902946
    42   6 C       78   1 H                                       1.0949582
    42   6 C       79   1 H                                       1.0934347
    44   6 C       80   1 H                                       1.0801379
    45   6 C       81   1 H                                       1.0783589
    46   6 C       82   1 H                                       1.0783945
    47   6 C       83   1 H                                       1.0777688

 * 6 distinct bonds (by element types)

   Z      Z             #   av. dist./Å        max./Å        min./Å
   1 H    6 C          35     1.0826380     1.0949582     1.0777438
   6 C    6 C          41     1.3952303     1.5306956     1.3634063
   6 C    7 N           6     1.4409143     1.4586897     1.4272906
   7 N   15 P           3     1.6552475     1.6568722     1.6537083
  15 P   16 S           1     2.1093419     2.1093419     2.1093419
  16 S   16 S           1     2.0573758     2.0573758     2.0573758


optimized geometry written to: xtbopt.xyz


           -------------------------------------------------
          | TOTAL ENERGY             -125.315315996151 Eh   |
          | GRADIENT NORM               0.000035834521 Eh/α |
          | HOMO-LUMO GAP               2.302864826731 eV   |
           -------------------------------------------------

------------------------------------------------------------------------
 * finished run on 2024/12/16 at 19:51:09.502     
------------------------------------------------------------------------
 total:
 * wall-time:     0 d,  0 h,  2 min, 12.368 sec
 *  cpu-time:     0 d,  0 h, 17 min, 25.315 sec
 * ratio c/w:     7.897 speedup
 SCF:
 * wall-time:     0 d,  0 h,  0 min,  2.299 sec
 *  cpu-time:     0 d,  0 h,  0 min, 18.282 sec
 * ratio c/w:     7.953 speedup
 ANC optimizer:
 * wall-time:     0 d,  0 h,  2 min,  9.896 sec
 *  cpu-time:     0 d,  0 h, 17 min,  5.706 sec
 * ratio c/w:     7.896 speedup

