83
 energy: -125.315315996151 gnorm: 0.000035834521 xtb: 6.7.1 (edcfbbe)
C            0.23968126989343       -1.70841968923503        2.75013738755228
N            0.33931931684978       -0.72955948434271        1.67325288085405
C            1.43088790519185        0.18835036452328        1.72872778526303
C            1.88270721968666        0.66540083437180        2.97397304007710
C            2.93470833484605        1.53142271669303        3.03872850835840
C            3.55584068803802        2.00423863136302        1.86318585672309
C            4.59346667447122        2.95773406518896        1.90986027655763
C            5.15685567287317        3.43206991850888        0.75854150362960
C            4.69613587196022        2.97945645761384       -0.48672420792035
C            3.69914451138475        2.04647285383514       -0.56487803183462
C            3.11194604332763        1.51879826682860        0.60482250069662
C            2.07031009314636        0.54748446877537        0.56190288785991
C            1.68836091254130       -0.05759913326414       -0.72599542129184
C            0.40190027355590        0.07985370704605       -1.19218511509915
C            0.03883771192715       -0.35965020680312       -2.47644494245373
C            0.95861078518836       -0.98119607735351       -3.26800959283632
C            2.26329984172132       -1.23558562362251       -2.79542218410468
C            3.20120454842838       -1.94575955751459       -3.57210041841811
C            4.45161760578839       -2.21129695384355       -3.08780038862988
C            4.81293715035716       -1.78357026052401       -1.80171164547638
C            3.92989824488892       -1.08246343189866       -1.02756197559148
C            2.63840329838656       -0.77644934650490       -1.50549320716236
N           -0.56956026674258        0.68529722823610       -0.32643340661975
C           -1.36549771191050        1.77737013794204       -0.86482644940197
P           -1.06469348666958       -0.30952143423002        0.90024512473119
S           -2.42713885333971        0.71159994619084        2.14538616386563
S           -1.12023868059091        1.94063989260864        3.15249449679077
C           -1.01665592331079        3.37105569490647        2.08573134195809
C            0.22824094198082        3.75216824204357        1.61200273417174
C            0.32559308160482        4.86885066758512        0.79949459472491
C           -0.81153812820263        5.58586561311947        0.46355028630497
C           -2.05124262509849        5.19458275949004        0.94569751909209
C           -2.15998209246332        4.08662660891699        1.76713206934539
N           -1.89642023404295       -1.67130804275256        0.46605804258887
C           -3.20784815186689       -1.89827186157995        1.00256127664315
C           -3.35495150055177       -2.46342461944746        2.26019362269116
C           -4.62201947585399       -2.67460004344456        2.77385630825611
C           -5.73689298296434       -2.32458053345190        2.03149501777728
C           -5.58529244005916       -1.76532710315305        0.77518258126472
C           -4.32171749433272       -1.53988743619109        0.24982087412743
C           -4.10757302500854       -0.98500861023669       -1.12175786573032
C           -3.62498566775148       -2.09696078003016       -2.05647736253874
C           -2.23686696160640       -2.63286854121728       -1.80964890498311
C           -1.69308943721700       -3.41210743405331       -2.83113018279935
C           -0.42567398345202       -3.95085222744368       -2.75659094036959
C            0.34528622910074       -3.72170509820794       -1.63011192304038
C           -0.17642223497940       -2.97113377102391       -0.59723158709780
C           -1.45550687376848       -2.42449426997380       -0.67260340155755
H           -0.36245047410833       -2.55073644463437        2.40895779424853
H            1.24100722323171       -2.06705261511107        2.98524600389787
H           -0.21305335163503       -1.29690405945391        3.65627899616722
H            1.38897917556310        0.35153114877280        3.87909728996450
H            3.28631362976845        1.88698595022897        3.99507573661655
H            4.92662921909221        3.31056309531753        2.87444020293481
H            5.95026850323977        4.16220641658455        0.79921723162459
H            5.13376312467424        3.37663323932067       -1.38984581835650
H            3.34534001704993        1.71396934940378       -1.52861349778053
H           -0.96930981398139       -0.21034885803482       -2.83037763384050
H            0.68958490034299       -1.30915632768009       -4.26016681131090
H            2.90717000800744       -2.28210709904556       -4.55509400652669
H            5.16475232760755       -2.75684506805474       -3.68630418231365
H            5.79682214657369       -2.01465717750475       -1.42315535078965
H            4.21396291335072       -0.76480057038234       -0.03602536788770
H           -1.80483752088515        1.53287073213484       -1.83307726732039
H           -0.72161158039173        2.65053963124626       -0.98673450886609
H           -2.16801462368040        2.02996854082428       -0.17273605641081
H            1.10613408783600        3.18860897086213        1.88379301057629
H            1.29303073621355        5.17328464860634        0.43051565599266
H           -0.73234582635507        6.45541578133577       -0.17023788246904
H           -2.93539173541745        5.75833191527917        0.69193037880896
H           -3.11910715381642        3.77626189434868        2.15475626864958
H           -2.48541726398227       -2.74171269843574        2.83490121789937
H           -4.73519255876124       -3.11517322004054        3.75163990181322
H           -6.72507759676749       -2.49021560805639        2.43062852100601
H           -6.45426517172363       -1.49426576820561        0.19489024585535
H           -3.37071044389959       -0.17648867639111       -1.09159093074123
H           -5.04134174057825       -0.57624400594079       -1.50870706591635
H           -4.33014828077595       -2.93200096545358       -1.99024456634772
H           -3.66154583956832       -1.73331394883826       -3.08702262042060
H           -2.29357865573387       -3.58742721682927       -3.71168299408371
H           -0.04130346104941       -4.54515815849720       -3.57017402285755
H            1.34061188067528       -4.12885882842094       -1.54956914818135
H            0.41694820456053       -2.80544350373610        0.28710074948385
