      -----------------------------------------------------------      
     |                   =====================                   |     
     |                           x T B                           |     
     |                   =====================                   |     
     |                         S. Grimme                         |     
     |          Mulliken Center for Theoretical Chemistry        |     
     |                    University of Bonn                     |     
      -----------------------------------------------------------      

   * xtb version 6.7.1 (edcfbbe) compiled by 'conda@3ef47c1a292c' on 2024-11-25

   xtb is free software: you can redistribute it and/or modify it under
   the terms of the GNU Lesser General Public License as published by
   the Free Software Foundation, either version 3 of the License, or
   (at your option) any later version.
   
   xtb is distributed in the hope that it will be useful,
   but WITHOUT ANY WARRANTY; without even the implied warranty of
   MERCHANTABILITY or FITNESS FOR A PARTICULAR PURPOSE.  See the
   GNU Lesser General Public License for more details.
   
   Cite this work as:
   * C. Bannwarth, E. Caldeweyher, S. Ehlert, A. Hansen, P. Pracht,
     J. Seibert, S. Spicher, S. Grimme, WIREs Comput. Mol. Sci., 2020, 11,
     e01493. DOI: 10.1002/wcms.1493
   
   for GFN2-xTB:
   * C. Bannwarth, S. Ehlert and S. Grimme., J. Chem. Theory Comput., 2019,
     15, 1652-1671. DOI: 10.1021/acs.jctc.8b01176
   for GFN1-xTB:
   * S. Grimme, C. Bannwarth, P. Shushkov, J. Chem. Theory Comput., 2017,
     13, 1989-2009. DOI: 10.1021/acs.jctc.7b00118
   for GFN0-xTB:
   * P. Pracht, E. Caldeweyher, S. Ehlert, S. Grimme, ChemRxiv, 2019, preprint.
     DOI: 10.26434/chemrxiv.8326202.v1
   for GFN-FF:
   * S. Spicher and S. Grimme, Angew. Chem. Int. Ed., 2020, 59, 15665-15673.
     DOI: 10.1002/anie.202004239
   
   for ALPB and GBSA implicit solvation:
   * S. Ehlert, M. Stahn, S. Spicher, S. Grimme, J. Chem. Theory Comput.,
     2021, 17, 4250-4261. DOI: 10.1021/acs.jctc.1c00471
   
   for ddCOSMO and CPCM-X implicit solvation:
   * M. Stahn, S. Ehlert, S. Grimme, J. Phys. Chem. A,
     2023, XX, XXXX-XXXX. DOI: 10.1021/acs.jpca.3c04382
   
   for DFT-D4:
   * E. Caldeweyher, C. Bannwarth and S. Grimme, J. Chem. Phys., 2017,
     147, 034112. DOI: 10.1063/1.4993215
   * E. Caldeweyher, S. Ehlert, A. Hansen, H. Neugebauer, S. Spicher,
     C. Bannwarth and S. Grimme, J. Chem. Phys., 2019, 150, 154122.
     DOI: 10.1063/1.5090222
   * E. Caldeweyher, J.-M. Mewes, S. Ehlert and S. Grimme, Phys. Chem. Chem. Phys.
     2020, 22, 8499-8512. DOI: 10.1039/D0CP00502A
   
   for sTDA-xTB:
   * S. Grimme and C. Bannwarth, J. Chem. Phys., 2016, 145, 054103.
     DOI: 10.1063/1.4959605
   
   in the mass-spec context:
   * V. Asgeirsson, C. Bauer and S. Grimme, Chem. Sci., 2017, 8, 4879.
     DOI: 10.1039/c7sc00601b
   * J. Koopman and S. Grimme, ACS Omega 2019, 4, 12, 15120-15133.
     DOI: 10.1021/acsomega.9b02011
   
   for metadynamics refer to:
   * S. Grimme, J. Chem. Theory Comput., 2019, 155, 2847-2862
     DOI: 10.1021/acs.jctc.9b00143
   
   for SPH calculations refer to:
   * S. Spicher and S. Grimme, J. Chem. Theory Comput., 2021, 17, 1701-1714
     DOI: 10.1021/acs.jctc.0c01306
   
   for ONIOM refer to:
   * C. Plett, A. Katbashev, S. Ehlert, S. Grimme, M. Bursch,
     Phys. Chem. Chem. Phys., 2023, 25, 17860-17868. DOI: 10.1039/D3CP02178E
   
   for DIPRO refer to:
   * J. Kohn, N. Gildemeister, S. Grimme, D. Fazzi, A. Hansen,
     J. Chem. Phys., 2023, just accepted.
   
   for PTB refer to:
   * S. Grimme, M. Mueller, A. Hansen, J. Chem. Phys., 2023, 158, 124111.
     DOI: 10.1063/5.0137838
   
   with help from (in alphabetical order)
   P. Atkinson, C. Bannwarth, F. Bohle, G. Brandenburg, E. Caldeweyher
   M. Checinski, S. Dohm, S. Ehlert, S. Ehrlich, I. Gerasimov, C. Hölzer
   A. Katbashev, J. Kohn, J. Koopman, C. Lavigne, S. Lehtola, F. März, M. Müller,
   F. Musil, H. Neugebauer, J. Pisarek, C. Plett, P. Pracht, F. Pultar,
   J. Seibert, P. Shushkov, S. Spicher, M. Stahn, M. Steiner, T. Strunk,
   J. Stückrath, T. Rose, and J. Unsleber
   
 * started run on 2024/12/16 at 17:33:59.808     
   ID    Z sym.   atoms
    1    6 C      1, 3-22, 24, 28-33, 35-40
    2    7 N      2, 23, 34
    3   15 P      25
    4   34 Se     26
    5   16 S      27
    6    1 H      41-75

           -------------------------------------------------
          |                Calculation Setup                |
           -------------------------------------------------

          program call               : xtb --gfn2 --opt extreme -P 8 --charge 1 molecule.xyz
          hostname                   : node20
          coordinate file            : molecule.xyz
          omp threads                :                     8


           -------------------------------------------------
          |                 G F N 2 - x T B                 |
           -------------------------------------------------

        Reference                      10.1021/acs.jctc.8b01176
      * Hamiltonian:
        H0-scaling (s, p, d)           1.850000    2.230000    2.230000
        zeta-weighting                 0.500000
      * Dispersion:
        s8                             2.700000
        a1                             0.520000
        a2                             5.000000
        s9                             5.000000
      * Repulsion:
        kExp                           1.500000    1.000000
        rExp                           1.000000
      * Coulomb:
        alpha                          2.000000
        third order                    shell-resolved
        anisotropic                    true
        a3                             3.000000
        a5                             4.000000
        cn-shift                       1.200000
        cn-exp                         4.000000
        max-rad                        5.000000


          ...................................................
          :                      SETUP                      :
          :.................................................:
          :  # basis functions                 213          :
          :  # atomic orbitals                 210          :
          :  # shells                          118          :
          :  # electrons                       202          :
          :  max. iterations                   250          :
          :  Hamiltonian                  GFN2-xTB          :
          :  restarted?                      false          :
          :  GBSA solvation                  false          :
          :  PC potential                    false          :
          :  electronic temp.          300.0000000     K    :
          :  accuracy                    1.0000000          :
          :  -> integral cutoff          0.2500000E+02      :
          :  -> integral neglect         0.1000000E-07      :
          :  -> SCF convergence          0.1000000E-05 Eh   :
          :  -> wf. convergence          0.1000000E-03 e    :
          :  Broyden damping             0.4000000          :
          :  net charge                          1          :
          :  unpaired electrons                  0          :
          ...................................................

 iter      E             dE          RMSdq      gap      omega  full diag
   1   -109.5373780 -0.109537E+03  0.494E+00    2.09       0.0  T
   2   -109.7041551 -0.166777E+00  0.286E+00    2.48       1.0  T
   3   -109.7056656 -0.151041E-02  0.129E+00    2.49       1.0  T
   4   -109.7034299  0.223568E-02  0.645E-01    2.14       1.0  T
   5   -109.7238651 -0.204352E-01  0.316E-01    2.31       1.0  T
   6   -109.7280133 -0.414829E-02  0.137E-01    2.26       1.0  T
   7   -109.7290501 -0.103676E-02  0.618E-02    2.27       1.0  T
   8   -109.7291581 -0.107951E-03  0.320E-02    2.27       1.0  T
   9   -109.7291709 -0.128421E-04  0.211E-02    2.27       1.0  T
  10   -109.7291716 -0.692807E-06  0.110E-02    2.27       1.1  T
  11   -109.7291739 -0.232185E-05  0.657E-03    2.27       1.8  T
  12   -109.7291742 -0.266004E-06  0.331E-03    2.27       3.5  T
  13   -109.7291743 -0.130928E-06  0.139E-03    2.27       8.3  T
  14   -109.7291743 -0.242664E-07  0.800E-04    2.27      14.4  T
  15   -109.7291744 -0.124426E-07  0.340E-04    2.27      34.0  T

   *** convergence criteria satisfied after 15 iterations ***

         #    Occupation            Energy/Eh            Energy/eV
      -------------------------------------------------------------
         1        2.0000           -0.8975972             -24.4249
       ...           ...                  ...                  ...
        95        2.0000           -0.5024699             -13.6729
        96        2.0000           -0.4930386             -13.4163
        97        2.0000           -0.4859796             -13.2242
        98        2.0000           -0.4835150             -13.1571
        99        2.0000           -0.4747779             -12.9194
       100        2.0000           -0.4581916             -12.4680
       101        2.0000           -0.4568109             -12.4305 (HOMO)
       102                         -0.3734003             -10.1607 (LUMO)
       103                         -0.3582715              -9.7491
       104                         -0.3500630              -9.5257
       105                         -0.3361802              -9.1479
       106                         -0.3312269              -9.0131
       ...                                ...                  ...
       210                          1.8662880              50.7843
      -------------------------------------------------------------
                  HL-Gap            0.0834105 Eh            2.2697 eV
             Fermi-level           -0.4151056 Eh          -11.2956 eV

 SCC (total)                   0 d,  0 h,  0 min,  3.038 sec
 SCC setup                      ...        0 min,  0.000 sec (  0.014%)
 Dispersion                     ...        0 min,  0.002 sec (  0.051%)
 classical contributions        ...        0 min,  0.000 sec (  0.004%)
 integral evaluation            ...        0 min,  0.008 sec (  0.276%)
 iterations                     ...        0 min,  2.858 sec ( 94.093%)
 molecular gradient             ...        0 min,  0.157 sec (  5.153%)
 printout                       ...        0 min,  0.012 sec (  0.408%)

         :::::::::::::::::::::::::::::::::::::::::::::::::::::
         ::                     SUMMARY                     ::
         :::::::::::::::::::::::::::::::::::::::::::::::::::::
         :: total energy            -107.952906379215 Eh    ::
         :: gradient norm              0.274628211045 Eh/a0 ::
         :: HOMO-LUMO gap              2.269715885854 eV    ::
         ::.................................................::
         :: SCC energy              -109.725598231589 Eh    ::
         :: -> isotropic ES            0.074887100095 Eh    ::
         :: -> anisotropic ES          0.002699865799 Eh    ::
         :: -> anisotropic XC          0.065679318096 Eh    ::
         :: -> dispersion             -0.116334546306 Eh    ::
         :: repulsion energy           1.772691852374 Eh    ::
         :: add. restraining           0.000000000000 Eh    ::
         :: total charge               1.000000000000 e     ::
         :::::::::::::::::::::::::::::::::::::::::::::::::::::

      ----------------------------------------------------------- 
     |                   =====================                   |
     |                        A N C O P T                        |
     |                   =====================                   |
     |               Approximate Normal Coordinate               |
     |                Rational Function Optimizer                |
      ----------------------------------------------------------- 
      ----------------------------------------------------------- 
     |                   =====================                   |
     |                        A N C O P T                        |
     |                   =====================                   |
     |               Approximate Normal Coordinate               |
     |                Rational Function Optimizer                |
      ----------------------------------------------------------- 

          ...................................................
          :                      SETUP                      :
          :.................................................:
          :   optimization level           extreme          :
          :   max. optcycles                  1500          :
          :   ANC micro-cycles                  20          :
          :   degrees of freedom               219          :
          :.................................................:
          :   RF solver                   davidson          :
          :   write xtbopt.log                true          :
          :   linear?                        false          :
          :   energy convergence         0.5000000E-07 Eh   :
          :   grad. convergence          0.5000000E-04 Eh/α :
          :   maxmium RF displ.          1.0000000          :
          :   Hlow (freq-cutoff)         0.1000000E-01      :
          :   Hmax (freq-cutoff)         5.0000000          :
          :   S6 in model hess.         20.0000000          :
          ...................................................

generating ANC from exact Hessian ...
Using Lindh-Hessian (1995)
 Shifting diagonal of input Hessian by    9.9365546939491137E-003
 Lowest  eigenvalues of input Hessian
    0.000000    0.000000    0.000000    0.000000    0.000000    0.000000
    0.010000    0.010052    0.010174    0.010322    0.010392    0.010585
    0.010697    0.010959    0.011329    0.011654    0.011790    0.012208
 Highest eigenvalues
    2.035855    2.058734    2.114213    2.135595    2.225131    2.247712


........................................................................
.............................. CYCLE    1 ..............................
........................................................................

 iter      E             dE          RMSdq      gap      omega  full diag
   1   -109.7291744 -0.109729E+03  0.174E-04    2.27       0.0  T
   2   -109.7291744 -0.161705E-09  0.122E-04    2.27      94.9  T
   3   -109.7291744 -0.268798E-09  0.875E-05    2.27     132.0  T
     SCC iter.                  ...        0 min,  0.352 sec
     gradient                   ...        0 min,  0.114 sec
 * total energy  :  -107.9529064 Eh     change       -0.3380137E-08 Eh
   gradient norm :     0.2746275 Eh/α   predicted     0.0000000E+00 (-100.00%)
   displ. norm   :     0.5852537 α      lambda       -0.1236259E+00
   maximum displ.:     0.2131988 α      in ANC's #136, #80, #71, ...

........................................................................
.............................. CYCLE    2 ..............................
........................................................................

 iter      E             dE          RMSdq      gap      omega  full diag
   1   -109.7939928 -0.109794E+03  0.664E-01    1.75       0.0  T
   2   -109.7952479 -0.125510E-02  0.386E-01    1.95       1.0  T
   3   -109.7946224  0.625579E-03  0.182E-01    2.05       1.0  T
   4   -109.7954402 -0.817873E-03  0.100E-01    2.07       1.0  T
   5   -109.7955263 -0.860782E-04  0.657E-02    2.08       1.0  T
   6   -109.7957031 -0.176747E-03  0.363E-02    2.06       1.0  T
   7   -109.7957105 -0.745436E-05  0.221E-02    2.06       1.0  T
   8   -109.7957233 -0.127572E-04  0.979E-03    2.06       1.2  T
   9   -109.7957240 -0.723491E-06  0.560E-03    2.06       2.1  T
  10   -109.7957242 -0.181954E-06  0.233E-03    2.06       5.0  T
  11   -109.7957242 -0.743690E-07  0.136E-03    2.06       8.5  T
  12   -109.7957243 -0.179870E-07  0.585E-04    2.06      19.7  T
  13   -109.7957243 -0.100791E-07  0.250E-04    2.06      46.3  T
     SCC iter.                  ...        0 min,  2.221 sec
     gradient                   ...        0 min,  0.115 sec
 * total energy  :  -108.0327646 Eh     change       -0.7985825E-01 Eh
   gradient norm :     0.1163542 Eh/α   predicted    -0.8301635E-01 (   3.95%)
   displ. norm   :     0.5945762 α      lambda       -0.4468770E-01
   maximum displ.:     0.2255957 α      in ANC's #34, #20, #80, ...

........................................................................
.............................. CYCLE    3 ..............................
........................................................................

 iter      E             dE          RMSdq      gap      omega  full diag
   1   -109.8295549 -0.109830E+03  0.307E-01    1.99       0.0  T
   2   -109.8297893 -0.234375E-03  0.189E-01    2.01       1.0  T
   3   -109.8293644  0.424908E-03  0.878E-02    2.03       1.0  T
   4   -109.8298303 -0.465861E-03  0.360E-02    2.02       1.0  T
   5   -109.8299018 -0.715893E-04  0.171E-02    2.03       1.0  T
   6   -109.8299048 -0.299234E-05  0.101E-02    2.03       1.1  T
   7   -109.8299065 -0.163758E-05  0.641E-03    2.03       1.8  T
   8   -109.8299067 -0.222786E-06  0.297E-03    2.03       3.9  T
   9   -109.8299068 -0.154008E-06  0.172E-03    2.03       6.7  T
  10   -109.8299069 -0.138060E-07  0.857E-04    2.03      13.5  T
  11   -109.8299069 -0.132979E-07  0.449E-04    2.03      25.7  T
     SCC iter.                  ...        0 min,  2.132 sec
     gradient                   ...        0 min,  0.144 sec
 * total energy  :  -108.0652887 Eh     change       -0.3252406E-01 Eh
   gradient norm :     0.0468804 Eh/α   predicted    -0.3024332E-01 (  -7.01%)
   displ. norm   :     0.6049597 α      lambda       -0.1968060E-01
   maximum displ.:     0.2740024 α      in ANC's #34, #20, #37, ...

........................................................................
.............................. CYCLE    4 ..............................
........................................................................

 iter      E             dE          RMSdq      gap      omega  full diag
   1   -109.8340428 -0.109834E+03  0.289E-01    1.98       0.0  T
   2   -109.8341167 -0.738590E-04  0.163E-01    1.98       1.0  T
   3   -109.8339233  0.193323E-03  0.568E-02    1.99       1.0  T
   4   -109.8341231 -0.199724E-03  0.230E-02    1.98       1.0  T
   5   -109.8341520 -0.288799E-04  0.126E-02    1.98       1.0  T
   6   -109.8341535 -0.155257E-05  0.754E-03    1.98       1.5  T
   7   -109.8341542 -0.656599E-06  0.464E-03    1.98       2.5  T
   8   -109.8341543 -0.156443E-06  0.195E-03    1.98       5.9  T
   9   -109.8341544 -0.458274E-07  0.112E-03    1.98      10.3  T
  10   -109.8341544 -0.146476E-07  0.526E-04    1.98      21.9  T
  11   -109.8341544 -0.404935E-08  0.294E-04    1.98      39.2  T
     SCC iter.                  ...        0 min,  1.866 sec
     gradient                   ...        0 min,  0.126 sec
 * total energy  :  -108.0795830 Eh     change       -0.1429428E-01 Eh
   gradient norm :     0.0241842 Eh/α   predicted    -0.1344162E-01 (  -5.97%)
   displ. norm   :     0.5976843 α      lambda       -0.9002132E-02
   maximum displ.:     0.2421088 α      in ANC's #20, #34, #15, ...

........................................................................
.............................. CYCLE    5 ..............................
........................................................................

 iter      E             dE          RMSdq      gap      omega  full diag
   1   -109.8336271 -0.109834E+03  0.222E-01    1.98       0.0  T
   2   -109.8336520 -0.249231E-04  0.120E-01    1.97       1.0  T
   3   -109.8335529  0.990656E-04  0.398E-02    1.98       1.0  T
   4   -109.8336585 -0.105537E-03  0.139E-02    1.97       1.0  T
   5   -109.8336671 -0.866957E-05  0.715E-03    1.97       1.6  T
   6   -109.8336688 -0.171087E-05  0.345E-03    1.97       3.3  T
   7   -109.8336689 -0.907807E-07  0.219E-03    1.97       5.3  T
   8   -109.8336690 -0.341738E-07  0.114E-03    1.97      10.2  T
   9   -109.8336690 -0.160655E-07  0.637E-04    1.97      18.1  T
  10   -109.8336690 -0.739585E-08  0.283E-04    1.97      40.7  T
     SCC iter.                  ...        0 min,  1.635 sec
     gradient                   ...        0 min,  0.115 sec
 * total energy  :  -108.0863996 Eh     change       -0.6816583E-02 Eh
   gradient norm :     0.0194493 Eh/α   predicted    -0.6108976E-02 ( -10.38%)
   displ. norm   :     0.6288728 α      lambda       -0.5563391E-02
   maximum displ.:     0.2672279 α      in ANC's #20, #15, #34, ...

........................................................................
.............................. CYCLE    6 ..............................
........................................................................

 iter      E             dE          RMSdq      gap      omega  full diag
   1   -109.8362066 -0.109836E+03  0.212E-01    1.97       0.0  T
   2   -109.8362326 -0.260184E-04  0.108E-01    1.96       1.0  T
   3   -109.8361972  0.353968E-04  0.300E-02    1.96       1.0  T
   4   -109.8362342 -0.370032E-04  0.142E-02    1.96       1.0  T
   5   -109.8362402 -0.598875E-05  0.667E-03    1.96       1.7  T
   6   -109.8362431 -0.286716E-05  0.239E-03    1.96       4.8  T
   7   -109.8362432 -0.728129E-07  0.167E-03    1.96       6.9  T
   8   -109.8362432 -0.260208E-07  0.744E-04    1.96      15.5  T
   9   -109.8362432 -0.214256E-08  0.453E-04    1.96      25.5  T
     SCC iter.                  ...        0 min,  1.766 sec
     gradient                   ...        0 min,  0.118 sec
 * total energy  :  -108.0908355 Eh     change       -0.4435910E-02 Eh
   gradient norm :     0.0157376 Eh/α   predicted    -0.3881804E-02 ( -12.49%)
   displ. norm   :     0.6749078 α      lambda       -0.4267476E-02
   maximum displ.:     0.2827484 α      in ANC's #20, #15, #6, ...

........................................................................
.............................. CYCLE    7 ..............................
........................................................................

 iter      E             dE          RMSdq      gap      omega  full diag
   1   -109.8407777 -0.109841E+03  0.173E-01    1.97       0.0  T
   2   -109.8407949 -0.172170E-04  0.907E-02    1.97       1.0  T
   3   -109.8407853  0.957289E-05  0.212E-02    1.97       1.0  T
   4   -109.8407924 -0.702643E-05  0.115E-02    1.97       1.0  T
   5   -109.8407983 -0.598784E-05  0.434E-03    1.97       2.7  T
   6   -109.8407997 -0.136123E-05  0.135E-03    1.97       8.5  T
   7   -109.8407998 -0.954684E-07  0.585E-04    1.97      19.7  T
   8   -109.8407998 -0.977158E-08  0.239E-04    1.97      48.3  T
     SCC iter.                  ...        0 min,  1.583 sec
     gradient                   ...        0 min,  0.117 sec
 * total energy  :  -108.0942963 Eh     change       -0.3460852E-02 Eh
   gradient norm :     0.0118327 Eh/α   predicted    -0.3105662E-02 ( -10.26%)
   displ. norm   :     0.7071572 α      lambda       -0.3354830E-02
   maximum displ.:     0.2541468 α      in ANC's #6, #20, #16, ...

........................................................................
.............................. CYCLE    8 ..............................
........................................................................

 iter      E             dE          RMSdq      gap      omega  full diag
   1   -109.8443713 -0.109844E+03  0.227E-01    1.94       0.0  T
   2   -109.8444091 -0.378875E-04  0.111E-01    1.95       1.0  T
   3   -109.8444086  0.552983E-06  0.225E-02    1.95       1.0  T
   4   -109.8444091 -0.516788E-06  0.133E-02    1.95       1.0  T
   5   -109.8444172 -0.805139E-05  0.288E-03    1.95       4.0  T
   6   -109.8444173 -0.145506E-06  0.164E-03    1.95       7.0  T
   7   -109.8444173 -0.444203E-07  0.101E-03    1.95      11.5  T
   8   -109.8444174 -0.428628E-07  0.526E-04    1.95      22.0  T
   9   -109.8444174 -0.120731E-08  0.334E-04    1.95      34.6  T
     SCC iter.                  ...        0 min,  1.847 sec
     gradient                   ...        0 min,  0.151 sec
 * total energy  :  -108.0969883 Eh     change       -0.2692014E-02 Eh
   gradient norm :     0.0104192 Eh/α   predicted    -0.2516243E-02 (  -6.53%)
   displ. norm   :     0.7039337 α      lambda       -0.2563369E-02
   maximum displ.:     0.2862637 α      in ANC's #6, #15, #13, ...

........................................................................
.............................. CYCLE    9 ..............................
........................................................................

 iter      E             dE          RMSdq      gap      omega  full diag
   1   -109.8469590 -0.109847E+03  0.166E-01    1.99       0.0  T
   2   -109.8469731 -0.141035E-04  0.877E-02    1.99       1.0  T
   3   -109.8469663  0.673871E-05  0.211E-02    1.99       1.0  T
   4   -109.8469719 -0.560139E-05  0.109E-02    1.99       1.1  T
   5   -109.8469771 -0.521438E-05  0.295E-03    1.99       3.9  T
   6   -109.8469773 -0.110555E-06  0.157E-03    1.99       7.4  T
   7   -109.8469773 -0.356998E-07  0.985E-04    1.99      11.7  T
   8   -109.8469773 -0.756707E-08  0.558E-04    1.99      20.7  T
     SCC iter.                  ...        0 min,  1.608 sec
     gradient                   ...        0 min,  0.117 sec
 * total energy  :  -108.0990292 Eh     change       -0.2040908E-02 Eh
   gradient norm :     0.0100725 Eh/α   predicted    -0.1916794E-02 (  -6.08%)
   displ. norm   :     0.6883439 α      lambda       -0.1943071E-02
   maximum displ.:     0.3027342 α      in ANC's #6, #14, #7, ...

........................................................................
.............................. CYCLE   10 ..............................
........................................................................

 iter      E             dE          RMSdq      gap      omega  full diag
   1   -109.8478760 -0.109848E+03  0.190E-01    1.98       0.0  T
   2   -109.8479026 -0.265532E-04  0.956E-02    1.98       1.0  T
   3   -109.8479000  0.254348E-05  0.208E-02    1.99       1.0  T
   4   -109.8479031 -0.308381E-05  0.118E-02    1.99       1.0  T
   5   -109.8479082 -0.505206E-05  0.251E-03    1.98       4.6  T
   6   -109.8479084 -0.229196E-06  0.133E-03    1.99       8.7  T
   7   -109.8479084 -0.340322E-07  0.832E-04    1.99      13.9  T
   8   -109.8479085 -0.341046E-07  0.439E-04    1.99      26.3  T
     SCC iter.                  ...        0 min,  1.418 sec
     gradient                   ...        0 min,  0.118 sec
 * total energy  :  -108.1006387 Eh     change       -0.1609417E-02 Eh
   gradient norm :     0.0102288 Eh/α   predicted    -0.1431868E-02 ( -11.03%)
   displ. norm   :     0.6860665 α      lambda       -0.1739383E-02
   maximum displ.:     0.3184068 α      in ANC's #6, #14, #7, ...

........................................................................
.............................. CYCLE   11 ..............................
........................................................................

 iter      E             dE          RMSdq      gap      omega  full diag
   1   -109.8498610 -0.109850E+03  0.159E-01    2.03       0.0  T
   2   -109.8498737 -0.127809E-04  0.857E-02    2.02       1.0  T
   3   -109.8498718  0.198942E-05  0.172E-02    2.03       1.0  T
   4   -109.8498746 -0.280053E-05  0.825E-03    2.02       1.4  T
   5   -109.8498764 -0.182129E-05  0.223E-03    2.02       5.2  T
   6   -109.8498766 -0.244100E-06  0.102E-03    2.03      11.3  T
   7   -109.8498766 -0.198796E-07  0.576E-04    2.03      20.0  T
   8   -109.8498766 -0.215626E-08  0.305E-04    2.03      37.9  T
     SCC iter.                  ...        0 min,  1.402 sec
     gradient                   ...        0 min,  0.114 sec
 * total energy  :  -108.1021341 Eh     change       -0.1495457E-02 Eh
   gradient norm :     0.0097643 Eh/α   predicted    -0.1279045E-02 ( -14.47%)
   displ. norm   :     0.7169849 α      lambda       -0.1710761E-02
   maximum displ.:     0.3380044 α      in ANC's #6, #14, #7, ...

........................................................................
.............................. CYCLE   12 ..............................
........................................................................

 iter      E             dE          RMSdq      gap      omega  full diag
   1   -109.8508744 -0.109851E+03  0.176E-01    2.05       0.0  T
   2   -109.8508896 -0.151702E-04  0.955E-02    2.05       1.0  T
   3   -109.8508893  0.259541E-06  0.177E-02    2.05       1.0  T
   4   -109.8508913 -0.201535E-05  0.795E-03    2.05       1.5  T
   5   -109.8508925 -0.115381E-05  0.236E-03    2.05       4.9  T
   6   -109.8508928 -0.283429E-06  0.954E-04    2.05      12.1  T
   7   -109.8508928 -0.647601E-08  0.574E-04    2.05      20.1  T
     SCC iter.                  ...        0 min,  0.909 sec
     gradient                   ...        0 min,  0.167 sec
 * total energy  :  -108.1036171 Eh     change       -0.1482992E-02 Eh
   gradient norm :     0.0096753 Eh/α   predicted    -0.1295106E-02 ( -12.67%)
   displ. norm   :     0.7383652 α      lambda       -0.1621059E-02
   maximum displ.:     0.3464359 α      in ANC's #6, #14, #7, ...

........................................................................
.............................. CYCLE   13 ..............................
........................................................................

 iter      E             dE          RMSdq      gap      omega  full diag
   1   -109.8517430 -0.109852E+03  0.180E-01    2.09       0.0  T
   2   -109.8517558 -0.128831E-04  0.101E-01    2.08       1.0  T
   3   -109.8517538  0.199580E-05  0.174E-02    2.08       1.0  T
   4   -109.8517576 -0.373037E-05  0.741E-03    2.08       1.6  T
   5   -109.8517584 -0.812632E-06  0.290E-03    2.08       4.0  T
   6   -109.8517589 -0.487003E-06  0.952E-04    2.08      12.1  T
   7   -109.8517589  0.290586E-08  0.647E-04    2.08      17.8  T
     SCC iter.                  ...        0 min,  1.244 sec
     gradient                   ...        0 min,  0.167 sec
 * total energy  :  -108.1050099 Eh     change       -0.1392763E-02 Eh
   gradient norm :     0.0101066 Eh/α   predicted    -0.1252419E-02 ( -10.08%)
   displ. norm   :     0.7338598 α      lambda       -0.1459382E-02
   maximum displ.:     0.3424928 α      in ANC's #6, #14, #7, ...

........................................................................
.............................. CYCLE   14 ..............................
........................................................................

 iter      E             dE          RMSdq      gap      omega  full diag
   1   -109.8519446 -0.109852E+03  0.182E-01    2.09       0.0  T
   2   -109.8519583 -0.137265E-04  0.101E-01    2.09       1.0  T
   3   -109.8519545  0.382173E-05  0.186E-02    2.10       1.0  T
   4   -109.8519593 -0.478685E-05  0.860E-03    2.10       1.3  T
   5   -109.8519612 -0.198595E-05  0.302E-03    2.10       3.8  T
   6   -109.8519618 -0.537148E-06  0.108E-03    2.10      10.7  T
   7   -109.8519618 -0.106908E-07  0.748E-04    2.10      15.4  T
   8   -109.8519618 -0.250363E-07  0.398E-04    2.10      29.0  T
     SCC iter.                  ...        0 min,  1.340 sec
     gradient                   ...        0 min,  0.116 sec
 * total energy  :  -108.1062535 Eh     change       -0.1243651E-02 Eh
   gradient norm :     0.0095553 Eh/α   predicted    -0.1122674E-02 (  -9.73%)
   displ. norm   :     0.7183059 α      lambda       -0.1309822E-02
   maximum displ.:     0.3301190 α      in ANC's #6, #14, #7, ...

........................................................................
.............................. CYCLE   15 ..............................
........................................................................

 iter      E             dE          RMSdq      gap      omega  full diag
   1   -109.8556405 -0.109856E+03  0.169E-01    2.12       0.0  T
   2   -109.8556503 -0.974700E-05  0.945E-02    2.12       1.0  T
   3   -109.8556450  0.525513E-05  0.162E-02    2.12       1.0  T
   4   -109.8556506 -0.557233E-05  0.787E-03    2.12       1.5  T
   5   -109.8556531 -0.250208E-05  0.181E-03    2.12       6.4  T
   6   -109.8556532 -0.146005E-06  0.758E-04    2.12      15.2  T
   7   -109.8556532 -0.205078E-08  0.493E-04    2.12      23.4  T
     SCC iter.                  ...        0 min,  1.008 sec
     gradient                   ...        0 min,  0.118 sec
 * total energy  :  -108.1073323 Eh     change       -0.1078762E-02 Eh
   gradient norm :     0.0084558 Eh/α   predicted    -0.9928425E-03 (  -7.96%)
   displ. norm   :     0.7265429 α      lambda       -0.1122028E-02
   maximum displ.:     0.3400267 α      in ANC's #6, #14, #1, ...

........................................................................
.............................. CYCLE   16 ..............................
........................................................................

 iter      E             dE          RMSdq      gap      omega  full diag
   1   -109.8548693 -0.109855E+03  0.167E-01    2.10       0.0  T
   2   -109.8548822 -0.128831E-04  0.903E-02    2.11       1.0  T
   3   -109.8548784  0.382393E-05  0.177E-02    2.11       1.0  T
   4   -109.8548811 -0.269303E-05  0.957E-03    2.11       1.2  T
   5   -109.8548855 -0.445150E-05  0.168E-03    2.11       6.9  T
   6   -109.8548856 -0.858086E-07  0.869E-04    2.11      13.3  T
   7   -109.8548856 -0.570051E-08  0.592E-04    2.11      19.5  T
     SCC iter.                  ...        0 min,  1.041 sec
     gradient                   ...        0 min,  0.114 sec
 * total energy  :  -108.1082229 Eh     change       -0.8905825E-03 Eh
   gradient norm :     0.0093321 Eh/α   predicted    -0.8571550E-03 (  -3.75%)
   displ. norm   :     0.6970402 α      lambda       -0.9182181E-03
   maximum displ.:     0.3167828 α      in ANC's #6, #1, #9, ...

........................................................................
.............................. CYCLE   17 ..............................
........................................................................

 iter      E             dE          RMSdq      gap      omega  full diag
   1   -109.8582885 -0.109858E+03  0.148E-01    2.12       0.0  T
   2   -109.8582975 -0.896974E-05  0.806E-02    2.12       1.0  T
   3   -109.8582947  0.275356E-05  0.149E-02    2.12       1.0  T
   4   -109.8582961 -0.135120E-05  0.808E-03    2.12       1.4  T
   5   -109.8582996 -0.350492E-05  0.216E-03    2.12       5.4  T
   6   -109.8582999 -0.280027E-06  0.957E-04    2.12      12.1  T
   7   -109.8582999 -0.372304E-07  0.537E-04    2.12      21.5  T
     SCC iter.                  ...        0 min,  1.077 sec
     gradient                   ...        0 min,  0.117 sec
 * total energy  :  -108.1089745 Eh     change       -0.7516569E-03 Eh
   gradient norm :     0.0071646 Eh/α   predicted    -0.6821766E-03 (  -9.24%)
   displ. norm   :     0.6836500 α      lambda       -0.7606760E-03
   maximum displ.:     0.3112937 α      in ANC's #6, #1, #7, ...

........................................................................
.............................. CYCLE   18 ..............................
........................................................................

 iter      E             dE          RMSdq      gap      omega  full diag
   1   -109.8598048 -0.109860E+03  0.136E-01    2.13       0.0  T
   2   -109.8598129 -0.810702E-05  0.734E-02    2.13       1.0  T
   3   -109.8598112  0.173206E-05  0.142E-02    2.13       1.0  T
   4   -109.8598118 -0.571923E-06  0.756E-03    2.13       1.5  T
   5   -109.8598146 -0.277376E-05  0.252E-03    2.13       4.6  T
   6   -109.8598150 -0.397416E-06  0.112E-03    2.13      10.4  T
   7   -109.8598150 -0.496747E-07  0.641E-04    2.13      18.0  T
   8   -109.8598150 -0.369745E-08  0.372E-04    2.13      31.1  T
     SCC iter.                  ...        0 min,  1.171 sec
     gradient                   ...        0 min,  0.123 sec
 * total energy  :  -108.1096157 Eh     change       -0.6412171E-03 Eh
   gradient norm :     0.0065515 Eh/α   predicted    -0.5581039E-03 ( -12.96%)
   displ. norm   :     0.6639372 α      lambda       -0.6930100E-03
   maximum displ.:     0.2819623 α      in ANC's #6, #1, #9, ...

........................................................................
.............................. CYCLE   19 ..............................
........................................................................

 iter      E             dE          RMSdq      gap      omega  full diag
   1   -109.8628109 -0.109863E+03  0.134E-01    2.11       0.0  T
   2   -109.8628194 -0.850130E-05  0.700E-02    2.11       1.0  T
   3   -109.8628173  0.205508E-05  0.150E-02    2.12       1.0  T
   4   -109.8628169  0.371179E-06  0.862E-03    2.11       1.3  T
   5   -109.8628211 -0.419062E-05  0.262E-03    2.12       4.4  T
   6   -109.8628216 -0.459917E-06  0.110E-03    2.12      10.5  T
   7   -109.8628216 -0.396962E-07  0.640E-04    2.12      18.1  T
   8   -109.8628216 -0.341683E-08  0.389E-04    2.12      29.7  T
     SCC iter.                  ...        0 min,  1.473 sec
     gradient                   ...        0 min,  0.183 sec
 * total energy  :  -108.1101812 Eh     change       -0.5654515E-03 Eh
   gradient norm :     0.0063450 Eh/α   predicted    -0.4992577E-03 ( -11.71%)
   displ. norm   :     0.6400317 α      lambda       -0.5876881E-03
   maximum displ.:     0.2632061 α      in ANC's #6, #1, #7, ...

........................................................................
.............................. CYCLE   20 ..............................
........................................................................

 iter      E             dE          RMSdq      gap      omega  full diag
   1   -109.8612158 -0.109861E+03  0.116E-01    2.15       0.0  T
   2   -109.8612202 -0.442330E-05  0.653E-02    2.15       1.0  T
   3   -109.8612169  0.335254E-05  0.113E-02    2.14       1.0  T
   4   -109.8612189 -0.199406E-05  0.628E-03    2.14       1.8  T
   5   -109.8612212 -0.236248E-05  0.255E-03    2.14       4.5  T
   6   -109.8612216 -0.415851E-06  0.105E-03    2.14      11.0  T
   7   -109.8612217 -0.275452E-07  0.585E-04    2.14      19.7  T
   8   -109.8612217 -0.239558E-08  0.355E-04    2.14      32.5  T
     SCC iter.                  ...        0 min,  1.344 sec
     gradient                   ...        0 min,  0.131 sec
 * total energy  :  -108.1106233 Eh     change       -0.4420845E-03 Eh
   gradient norm :     0.0069072 Eh/α   predicted    -0.4142194E-03 (  -6.30%)
   displ. norm   :     0.5492390 α      lambda       -0.4497834E-03
   maximum displ.:     0.2325759 α      in ANC's #1, #6, #7, ...
 * RMSD in coord.:     1.1581834 α      energy gain  -0.1577169E+00 Eh

generating ANC from exact Hessian ...
Using Lindh-Hessian (1995)
 Shifting diagonal of input Hessian by    1.0622153413496748E-002
 Lowest  eigenvalues of input Hessian
    0.010000    0.000000    0.000000    0.000000    0.000000    0.000000
    0.000000    0.010688    0.010705    0.010867    0.010948    0.011046
    0.011164    0.011274    0.011535    0.011828    0.011994    0.012337
 Highest eigenvalues
    2.011366    2.016699    2.030106    2.074855    2.117145    2.127217


........................................................................
.............................. CYCLE   21 ..............................
........................................................................

 iter      E             dE          RMSdq      gap      omega  full diag
   1   -109.8640889 -0.109864E+03  0.122E-01    2.10       0.0  T
   2   -109.8640958 -0.694663E-05  0.640E-02    2.10       1.0  T
   3   -109.8640936  0.220350E-05  0.146E-02    2.10       1.0  T
   4   -109.8640937 -0.106374E-06  0.821E-03    2.10       1.4  T
   5   -109.8640972 -0.347863E-05  0.258E-03    2.10       4.5  T
   6   -109.8640977 -0.473631E-06  0.107E-03    2.10      10.8  T
   7   -109.8640977 -0.184168E-07  0.685E-04    2.10      16.8  T
   8   -109.8640977 -0.432328E-08  0.422E-04    2.10      27.3  T
     SCC iter.                  ...        0 min,  1.489 sec
     gradient                   ...        0 min,  0.146 sec
 * total energy  :  -108.1109249 Eh     change       -0.3016448E-03 Eh
   gradient norm :     0.0068181 Eh/α   predicted     0.0000000E+00 (-100.00%)
   displ. norm   :     0.0720209 α      lambda       -0.1342105E-03
   maximum displ.:     0.0258782 α      in ANC's #13, #7, #3, ...

........................................................................
.............................. CYCLE   22 ..............................
........................................................................

 iter      E             dE          RMSdq      gap      omega  full diag
   1   -109.8637456 -0.109864E+03  0.322E-02    2.14       0.0  T
   2   -109.8637465 -0.908584E-06  0.163E-02    2.13       1.0  T
   3   -109.8637465  0.671343E-07  0.422E-03    2.13       2.7  T
   4   -109.8637465 -0.107059E-07  0.245E-03    2.13       4.7  T
   5   -109.8637467 -0.232265E-06  0.943E-04    2.13      12.2  T
   6   -109.8637467 -0.251417E-07  0.510E-04    2.13      22.6  T
     SCC iter.                  ...        0 min,  0.994 sec
     gradient                   ...        0 min,  0.115 sec
 * total energy  :  -108.1110297 Eh     change       -0.1047250E-03 Eh
   gradient norm :     0.0036769 Eh/α   predicted    -0.7245032E-04 ( -30.82%)
   displ. norm   :     0.1869389 α      lambda       -0.2066384E-03
   maximum displ.:     0.0703815 α      in ANC's #13, #7, #3, ...

........................................................................
.............................. CYCLE   23 ..............................
........................................................................

 iter      E             dE          RMSdq      gap      omega  full diag
   1   -109.8625879 -0.109863E+03  0.477E-02    2.11       0.0  T
   2   -109.8625895 -0.154227E-05  0.254E-02    2.12       1.0  T
   3   -109.8625887  0.793653E-06  0.647E-03    2.12       1.8  T
   4   -109.8625896 -0.885237E-06  0.302E-03    2.12       3.8  T
   5   -109.8625899 -0.319461E-06  0.978E-04    2.12      11.8  T
   6   -109.8625899 -0.306013E-07  0.405E-04    2.12      28.5  T
     SCC iter.                  ...        0 min,  1.069 sec
     gradient                   ...        0 min,  0.126 sec
 * total energy  :  -108.1111600 Eh     change       -0.1303042E-03 Eh
   gradient norm :     0.0038519 Eh/α   predicted    -0.1069413E-03 ( -17.93%)
   displ. norm   :     0.2013089 α      lambda       -0.1338161E-03
   maximum displ.:     0.0815180 α      in ANC's #13, #7, #3, ...

........................................................................
.............................. CYCLE   24 ..............................
........................................................................

 iter      E             dE          RMSdq      gap      omega  full diag
   1   -109.8623834 -0.109862E+03  0.408E-02    2.12       0.0  T
   2   -109.8623844 -0.995505E-06  0.220E-02    2.12       1.0  T
   3   -109.8623842  0.167625E-06  0.455E-03    2.12       2.5  T
   4   -109.8623844 -0.161653E-06  0.235E-03    2.12       4.9  T
   5   -109.8623846 -0.196454E-06  0.825E-04    2.12      14.0  T
   6   -109.8623846 -0.330107E-07  0.313E-04    2.12      36.9  T
     SCC iter.                  ...        0 min,  0.857 sec
     gradient                   ...        0 min,  0.114 sec
 * total energy  :  -108.1112650 Eh     change       -0.1050468E-03 Eh
   gradient norm :     0.0055255 Eh/α   predicted    -0.6965327E-04 ( -33.69%)
   displ. norm   :     0.3863408 α      lambda       -0.2303645E-03
   maximum displ.:     0.1576961 α      in ANC's #7, #13, #3, ...

........................................................................
.............................. CYCLE   25 ..............................
........................................................................

 iter      E             dE          RMSdq      gap      omega  full diag
   1   -109.8623333 -0.109862E+03  0.639E-02    2.12       0.0  T
   2   -109.8623349 -0.162436E-05  0.363E-02    2.12       1.0  T
   3   -109.8623332  0.170725E-05  0.700E-03    2.12       1.6  T
   4   -109.8623348 -0.159490E-05  0.360E-03    2.12       3.2  T
   5   -109.8623353 -0.545641E-06  0.142E-03    2.12       8.1  T
   6   -109.8623354 -0.978857E-07  0.596E-04    2.12      19.4  T
   7   -109.8623355 -0.226718E-07  0.321E-04    2.12      36.0  T
     SCC iter.                  ...        0 min,  1.170 sec
     gradient                   ...        0 min,  0.123 sec
 * total energy  :  -108.1114368 Eh     change       -0.1717846E-03 Eh
   gradient norm :     0.0067892 Eh/α   predicted    -0.1323749E-03 ( -22.94%)
   displ. norm   :     0.4084155 α      lambda       -0.2240078E-03
   maximum displ.:     0.1730574 α      in ANC's #7, #13, #3, ...

........................................................................
.............................. CYCLE   26 ..............................
........................................................................

 iter      E             dE          RMSdq      gap      omega  full diag
   1   -109.8623762 -0.109862E+03  0.644E-02    2.10       0.0  T
   2   -109.8623779 -0.162510E-05  0.369E-02    2.10       1.0  T
   3   -109.8623770  0.875155E-06  0.653E-03    2.10       1.8  T
   4   -109.8623780 -0.102412E-05  0.325E-03    2.10       3.5  T
   5   -109.8623783 -0.285501E-06  0.141E-03    2.10       8.2  T
   6   -109.8623784 -0.489909E-07  0.893E-04    2.10      12.9  T
   7   -109.8623784 -0.154527E-08  0.654E-04    2.10      17.7  T
     SCC iter.                  ...        0 min,  1.249 sec
     gradient                   ...        0 min,  0.188 sec
 * total energy  :  -108.1116031 Eh     change       -0.1662977E-03 Eh
   gradient norm :     0.0062044 Eh/α   predicted    -0.1306871E-03 ( -21.41%)
   displ. norm   :     0.4059033 α      lambda       -0.2136247E-03
   maximum displ.:     0.1720039 α      in ANC's #7, #3, #13, ...

........................................................................
.............................. CYCLE   27 ..............................
........................................................................

 iter      E             dE          RMSdq      gap      omega  full diag
   1   -109.8634039 -0.109863E+03  0.597E-02    2.09       0.0  T
   2   -109.8634047 -0.856193E-06  0.342E-02    2.09       1.0  T
   3   -109.8634043  0.464332E-06  0.467E-03    2.09       2.5  T
   4   -109.8634048 -0.488559E-06  0.253E-03    2.09       4.6  T
   5   -109.8634050 -0.236923E-06  0.888E-04    2.09      13.0  T
   6   -109.8634050 -0.248143E-07  0.465E-04    2.09      24.8  T
     SCC iter.                  ...        0 min,  0.958 sec
     gradient                   ...        0 min,  0.114 sec
 * total energy  :  -108.1117684 Eh     change       -0.1652952E-03 Eh
   gradient norm :     0.0048594 Eh/α   predicted    -0.1244177E-03 ( -24.73%)
   displ. norm   :     0.4153227 α      lambda       -0.2092802E-03
   maximum displ.:     0.1751331 α      in ANC's #7, #3, #2, ...

........................................................................
.............................. CYCLE   28 ..............................
........................................................................

 iter      E             dE          RMSdq      gap      omega  full diag
   1   -109.8643686 -0.109864E+03  0.627E-02    2.08       0.0  T
   2   -109.8643698 -0.120296E-05  0.357E-02    2.08       1.0  T
   3   -109.8643697  0.554104E-07  0.510E-03    2.08       2.3  T
   4   -109.8643699 -0.171962E-06  0.251E-03    2.08       4.6  T
   5   -109.8643700 -0.107807E-06  0.123E-03    2.08       9.4  T
   6   -109.8643701 -0.758398E-07  0.596E-04    2.08      19.4  T
   7   -109.8643701 -0.513592E-08  0.424E-04    2.08      27.2  T
     SCC iter.                  ...        0 min,  1.119 sec
     gradient                   ...        0 min,  0.115 sec
 * total energy  :  -108.1119283 Eh     change       -0.1599326E-03 Eh
   gradient norm :     0.0041308 Eh/α   predicted    -0.1226899E-03 ( -23.29%)
   displ. norm   :     0.4327747 α      lambda       -0.1764203E-03
   maximum displ.:     0.1754048 α      in ANC's #7, #2, #3, ...

........................................................................
.............................. CYCLE   29 ..............................
........................................................................

 iter      E             dE          RMSdq      gap      omega  full diag
   1   -109.8640868 -0.109864E+03  0.680E-02    2.08       0.0  T
   2   -109.8640882 -0.141676E-05  0.381E-02    2.07       1.0  T
   3   -109.8640882  0.125075E-07  0.567E-03    2.07       2.0  T
   4   -109.8640883 -0.408372E-07  0.279E-03    2.07       4.1  T
   5   -109.8640885 -0.281282E-06  0.906E-04    2.07      12.7  T
   6   -109.8640886 -0.415486E-07  0.384E-04    2.07      30.1  T
     SCC iter.                  ...        0 min,  0.934 sec
     gradient                   ...        0 min,  0.144 sec
 * total energy  :  -108.1120669 Eh     change       -0.1386150E-03 Eh
   gradient norm :     0.0044594 Eh/α   predicted    -0.1047331E-03 ( -24.44%)
   displ. norm   :     0.4298260 α      lambda       -0.1805718E-03
   maximum displ.:     0.1707222 α      in ANC's #2, #3, #7, ...

........................................................................
.............................. CYCLE   30 ..............................
........................................................................

 iter      E             dE          RMSdq      gap      omega  full diag
   1   -109.8648915 -0.109865E+03  0.778E-02    2.07       0.0  T
   2   -109.8648939 -0.239519E-05  0.424E-02    2.07       1.0  T
   3   -109.8648938  0.139443E-06  0.760E-03    2.07       1.5  T
   4   -109.8648936  0.169108E-06  0.408E-03    2.07       2.8  T
   5   -109.8648944 -0.750205E-06  0.130E-03    2.07       8.9  T
   6   -109.8648945 -0.110179E-06  0.529E-04    2.07      21.8  T
   7   -109.8648945 -0.147395E-07  0.241E-04    2.07      47.9  T
     SCC iter.                  ...        0 min,  1.033 sec
     gradient                   ...        0 min,  0.119 sec
 * total energy  :  -108.1122109 Eh     change       -0.1440150E-03 Eh
   gradient norm :     0.0047555 Eh/α   predicted    -0.1069663E-03 ( -25.73%)
   displ. norm   :     0.5237952 α      lambda       -0.2027989E-03
   maximum displ.:     0.2075999 α      in ANC's #2, #3, #7, ...

........................................................................
.............................. CYCLE   31 ..............................
........................................................................

 iter      E             dE          RMSdq      gap      omega  full diag
   1   -109.8634755 -0.109863E+03  0.973E-02    2.06       0.0  T
   2   -109.8634788 -0.323506E-05  0.536E-02    2.06       1.0  T
   3   -109.8634787  0.585171E-07  0.893E-03    2.06       1.3  T
   4   -109.8634785  0.153539E-06  0.452E-03    2.06       2.6  T
   5   -109.8634795 -0.923822E-06  0.107E-03    2.06      10.8  T
   6   -109.8634795 -0.535366E-07  0.507E-04    2.06      22.8  T
   7   -109.8634795 -0.120739E-07  0.257E-04    2.06      45.0  T
     SCC iter.                  ...        0 min,  1.239 sec
     gradient                   ...        0 min,  0.114 sec
 * total energy  :  -108.1123772 Eh     change       -0.1662472E-03 Eh
   gradient norm :     0.0045699 Eh/α   predicted    -0.1292240E-03 ( -22.27%)
   displ. norm   :     0.5229813 α      lambda       -0.2715978E-03
   maximum displ.:     0.2125490 α      in ANC's #9, #2, #3, ...

........................................................................
.............................. CYCLE   32 ..............................
........................................................................

 iter      E             dE          RMSdq      gap      omega  full diag
   1   -109.8672990 -0.109867E+03  0.124E-01    2.06       0.0  T
   2   -109.8673062 -0.721084E-05  0.661E-02    2.06       1.0  T
   3   -109.8673055  0.727214E-06  0.135E-02    2.06       1.0  T
   4   -109.8673060 -0.488611E-06  0.711E-03    2.06       1.6  T
   5   -109.8673078 -0.183579E-05  0.143E-03    2.06       8.1  T
   6   -109.8673079 -0.907404E-07  0.615E-04    2.06      18.8  T
   7   -109.8673079 -0.103263E-07  0.362E-04    2.06      31.9  T
     SCC iter.                  ...        0 min,  1.191 sec
     gradient                   ...        0 min,  0.114 sec
 * total energy  :  -108.1125565 Eh     change       -0.1793498E-03 Eh
   gradient norm :     0.0047834 Eh/α   predicted    -0.1729453E-03 (  -3.57%)
   displ. norm   :     0.6228689 α      lambda       -0.2373538E-03
   maximum displ.:     0.2391087 α      in ANC's #2, #3, #5, ...

........................................................................
.............................. CYCLE   33 ..............................
........................................................................

 iter      E             dE          RMSdq      gap      omega  full diag
   1   -109.8610519 -0.109861E+03  0.114E-01    2.06       0.0  T
   2   -109.8610559 -0.397745E-05  0.644E-02    2.06       1.0  T
   3   -109.8610555  0.333479E-06  0.882E-03    2.06       1.3  T
   4   -109.8610559 -0.384083E-06  0.455E-03    2.06       2.5  T
   5   -109.8610567 -0.801920E-06  0.118E-03    2.06       9.8  T
   6   -109.8610568 -0.503806E-07  0.511E-04    2.06      22.6  T
   7   -109.8610568 -0.956562E-08  0.269E-04    2.06      42.9  T
     SCC iter.                  ...        0 min,  1.163 sec
     gradient                   ...        0 min,  0.114 sec
 * total energy  :  -108.1127023 Eh     change       -0.1457137E-03 Eh
   gradient norm :     0.0072195 Eh/α   predicted    -0.1647196E-03 (  13.04%)
   displ. norm   :     0.2666641 α      lambda       -0.1951963E-03
   maximum displ.:     0.1005976 α      in ANC's #16, #5, #3, ...

........................................................................
.............................. CYCLE   34 ..............................
........................................................................

 iter      E             dE          RMSdq      gap      omega  full diag
   1   -109.8638139 -0.109864E+03  0.547E-02    2.06       0.0  T
   2   -109.8638147 -0.818410E-06  0.319E-02    2.06       1.0  T
   3   -109.8638131  0.155199E-05  0.587E-03    2.06       2.0  T
   4   -109.8638150 -0.186118E-05  0.151E-03    2.06       7.7  T
   5   -109.8638150 -0.176506E-07  0.697E-04    2.06      16.6  T
   6   -109.8638151 -0.229255E-07  0.329E-04    2.06      35.1  T
     SCC iter.                  ...        0 min,  1.106 sec
     gradient                   ...        0 min,  0.115 sec
 * total energy  :  -108.1128589 Eh     change       -0.1566230E-03 Eh
   gradient norm :     0.0064623 Eh/α   predicted    -0.1045390E-03 ( -33.25%)
   displ. norm   :     0.4229489 α      lambda       -0.2793807E-03
   maximum displ.:     0.1573089 α      in ANC's #5, #3, #16, ...

........................................................................
.............................. CYCLE   35 ..............................
........................................................................

 iter      E             dE          RMSdq      gap      omega  full diag
   1   -109.8667869 -0.109867E+03  0.839E-02    2.07       0.0  T
   2   -109.8667889 -0.202799E-05  0.488E-02    2.07       1.0  T
   3   -109.8667838  0.511809E-05  0.101E-02    2.07       1.1  T
   4   -109.8667897 -0.591361E-05  0.273E-03    2.07       4.2  T
   5   -109.8667897 -0.543523E-07  0.134E-03    2.07       8.6  T
   6   -109.8667899 -0.135293E-06  0.560E-04    2.07      20.6  T
   7   -109.8667899 -0.164263E-07  0.267E-04    2.07      43.2  T
     SCC iter.                  ...        0 min,  1.203 sec
     gradient                   ...        0 min,  0.146 sec
 * total energy  :  -108.1130688 Eh     change       -0.2099614E-03 Eh
   gradient norm :     0.0049773 Eh/α   predicted    -0.1646835E-03 ( -21.56%)
   displ. norm   :     0.5611132 α      lambda       -0.2275189E-03
   maximum displ.:     0.2251346 α      in ANC's #3, #5, #2, ...

........................................................................
.............................. CYCLE   36 ..............................
........................................................................

 iter      E             dE          RMSdq      gap      omega  full diag
   1   -109.8649653 -0.109865E+03  0.103E-01    2.08       0.0  T
   2   -109.8649677 -0.243566E-05  0.596E-02    2.08       1.0  T
   3   -109.8649625  0.521455E-05  0.104E-02    2.08       1.1  T
   4   -109.8649685 -0.604298E-05  0.333E-03    2.08       3.5  T
   5   -109.8649687 -0.171493E-06  0.140E-03    2.08       8.3  T
   6   -109.8649689 -0.160103E-06  0.575E-04    2.08      20.1  T
   7   -109.8649689 -0.153507E-07  0.271E-04    2.08      42.6  T
     SCC iter.                  ...        0 min,  1.188 sec
     gradient                   ...        0 min,  0.140 sec
 * total energy  :  -108.1132495 Eh     change       -0.1806588E-03 Eh
   gradient norm :     0.0056513 Eh/α   predicted    -0.1495794E-03 ( -17.20%)
   displ. norm   :     0.4695033 α      lambda       -0.2445205E-03
   maximum displ.:     0.2042830 α      in ANC's #5, #3, #8, ...

........................................................................
.............................. CYCLE   37 ..............................
........................................................................

 iter      E             dE          RMSdq      gap      omega  full diag
   1   -109.8674420 -0.109867E+03  0.919E-02    2.09       0.0  T
   2   -109.8674454 -0.339076E-05  0.509E-02    2.09       1.0  T
   3   -109.8674411  0.432470E-05  0.115E-02    2.09       1.0  T
   4   -109.8674453 -0.425111E-05  0.583E-03    2.09       2.0  T
   5   -109.8674465 -0.114532E-05  0.172E-03    2.09       6.7  T
   6   -109.8674467 -0.274769E-06  0.596E-04    2.09      19.4  T
   7   -109.8674468 -0.112707E-07  0.330E-04    2.09      35.0  T
     SCC iter.                  ...        0 min,  1.230 sec
     gradient                   ...        0 min,  0.148 sec
 * total energy  :  -108.1134126 Eh     change       -0.1631059E-03 Eh
   gradient norm :     0.0042545 Eh/α   predicted    -0.1492142E-03 (  -8.52%)
   displ. norm   :     0.6348372 α      lambda       -0.2027179E-03
   maximum displ.:     0.2700827 α      in ANC's #3, #5, #2, ...

........................................................................
.............................. CYCLE   38 ..............................
........................................................................

 iter      E             dE          RMSdq      gap      omega  full diag
   1   -109.8604926 -0.109860E+03  0.109E-01    2.10       0.0  T
   2   -109.8604953 -0.270940E-05  0.637E-02    2.10       1.0  T
   3   -109.8604937  0.159758E-05  0.698E-03    2.10       1.7  T
   4   -109.8604959 -0.221431E-05  0.290E-03    2.10       4.0  T
   5   -109.8604961 -0.168169E-06  0.123E-03    2.10       9.4  T
   6   -109.8604961 -0.416839E-07  0.681E-04    2.10      16.9  T
   7   -109.8604961 -0.349995E-07  0.259E-04    2.10      44.6  T
     SCC iter.                  ...        0 min,  1.122 sec
     gradient                   ...        0 min,  0.119 sec
 * total energy  :  -108.1135358 Eh     change       -0.1232229E-03 Eh
   gradient norm :     0.0075377 Eh/α   predicted    -0.1422148E-03 (  15.41%)
   displ. norm   :     0.2869847 α      lambda       -0.2019463E-03
   maximum displ.:     0.1359890 α      in ANC's #3, #5, #4, ...

........................................................................
.............................. CYCLE   39 ..............................
........................................................................

 iter      E             dE          RMSdq      gap      omega  full diag
   1   -109.8632508 -0.109863E+03  0.468E-02    2.10       0.0  T
   2   -109.8632515 -0.624238E-06  0.273E-02    2.10       1.0  T
   3   -109.8632509  0.568888E-06  0.387E-03    2.10       3.0  T
   4   -109.8632516 -0.738502E-06  0.142E-03    2.10       8.1  T
   5   -109.8632517 -0.423595E-07  0.646E-04    2.10      17.9  T
   6   -109.8632517 -0.848395E-08  0.311E-04    2.10      37.2  T
     SCC iter.                  ...        0 min,  1.004 sec
     gradient                   ...        0 min,  0.130 sec
 * total energy  :  -108.1136887 Eh     change       -0.1528651E-03 Eh
   gradient norm :     0.0063172 Eh/α   predicted    -0.1092898E-03 ( -28.51%)
   displ. norm   :     0.4124021 α      lambda       -0.2441364E-03
   maximum displ.:     0.1948369 α      in ANC's #3, #5, #4, ...

........................................................................
.............................. CYCLE   40 ..............................
........................................................................

 iter      E             dE          RMSdq      gap      omega  full diag
   1   -109.8670676 -0.109867E+03  0.697E-02    2.10       0.0  T
   2   -109.8670698 -0.225547E-05  0.394E-02    2.10       1.0  T
   3   -109.8670686  0.125229E-05  0.715E-03    2.10       1.6  T
   4   -109.8670700 -0.140477E-05  0.346E-03    2.10       3.3  T
   5   -109.8670703 -0.368895E-06  0.101E-03    2.10      11.4  T
   6   -109.8670704 -0.359370E-07  0.492E-04    2.10      23.5  T
   7   -109.8670704 -0.152539E-07  0.196E-04    2.10      58.9  T
     SCC iter.                  ...        0 min,  1.147 sec
     gradient                   ...        0 min,  0.131 sec
 * total energy  :  -108.1138626 Eh     change       -0.1739369E-03 Eh
   gradient norm :     0.0069293 Eh/α   predicted    -0.1428325E-03 ( -17.88%)
   displ. norm   :     0.5810329 α      lambda       -0.2770897E-03
   maximum displ.:     0.2701037 α      in ANC's #3, #5, #4, ...

........................................................................
.............................. CYCLE   41 ..............................
........................................................................

 iter      E             dE          RMSdq      gap      omega  full diag
   1   -109.8673715 -0.109867E+03  0.989E-02    2.11       0.0  T
   2   -109.8673751 -0.357978E-05  0.553E-02    2.11       1.0  T
   3   -109.8673733  0.186020E-05  0.987E-03    2.11       1.2  T
   4   -109.8673752 -0.197737E-05  0.503E-03    2.11       2.3  T
   5   -109.8673761 -0.874547E-06  0.103E-03    2.11      11.2  T
   6   -109.8673762 -0.449856E-07  0.386E-04    2.11      29.9  T
   7   -109.8673762 -0.433650E-08  0.201E-04    2.11      57.5  T
     SCC iter.                  ...        0 min,  1.333 sec
     gradient                   ...        0 min,  0.182 sec
 * total energy  :  -108.1140882 Eh     change       -0.2255436E-03 Eh
   gradient norm :     0.0059733 Eh/α   predicted    -0.1853235E-03 ( -17.83%)
   displ. norm   :     0.6169552 α      lambda       -0.3313355E-03
   maximum displ.:     0.2828339 α      in ANC's #3, #5, #4, ...

........................................................................
.............................. CYCLE   42 ..............................
........................................................................

 iter      E             dE          RMSdq      gap      omega  full diag
   1   -109.8683501 -0.109868E+03  0.116E-01    2.11       0.0  T
   2   -109.8683569 -0.679334E-05  0.616E-02    2.11       1.0  T
   3   -109.8683547  0.221764E-05  0.134E-02    2.11       1.0  T
   4   -109.8683567 -0.198888E-05  0.738E-03    2.11       1.6  T
   5   -109.8683586 -0.193731E-05  0.125E-03    2.11       9.2  T
   6   -109.8683587 -0.668357E-07  0.491E-04    2.11      23.5  T
   7   -109.8683587 -0.768276E-08  0.240E-04    2.11      48.1  T
     SCC iter.                  ...        0 min,  1.223 sec
     gradient                   ...        0 min,  0.139 sec
 * total energy  :  -108.1143659 Eh     change       -0.2776933E-03 Eh
   gradient norm :     0.0050475 Eh/α   predicted    -0.2287280E-03 ( -17.63%)
   displ. norm   :     0.7079762 α      lambda       -0.3656849E-03
   maximum displ.:     0.3219106 α      in ANC's #3, #5, #4, ...
 * RMSD in coord.:     0.9956751 α      energy gain  -0.3742582E-02 Eh

generating ANC from exact Hessian ...
Using Lindh-Hessian (1995)
 Shifting diagonal of input Hessian by    1.0568618262114929E-002
 Lowest  eigenvalues of input Hessian
    0.010000    0.000000    0.000000    0.000000    0.000000    0.000000
    0.000000    0.010641    0.010643    0.010859    0.010953    0.010997
    0.011137    0.011272    0.011671    0.011773    0.012020    0.012368
 Highest eigenvalues
    2.016797    2.022169    2.041993    2.076449    2.118855    2.127306


........................................................................
.............................. CYCLE   43 ..............................
........................................................................

 iter      E             dE          RMSdq      gap      omega  full diag
   1   -109.8666974 -0.109867E+03  0.124E-01    2.13       0.0  T
   2   -109.8667049 -0.749057E-05  0.669E-02    2.13       1.0  T
   3   -109.8667014  0.347024E-05  0.141E-02    2.13       1.0  T
   4   -109.8667047 -0.328894E-05  0.754E-03    2.13       1.5  T
   5   -109.8667067 -0.196472E-05  0.165E-03    2.13       7.0  T
   6   -109.8667068 -0.135744E-06  0.793E-04    2.13      14.6  T
   7   -109.8667068 -0.419915E-07  0.338E-04    2.13      34.2  T
     SCC iter.                  ...        0 min,  0.810 sec
     gradient                   ...        0 min,  0.115 sec
 * total energy  :  -108.1146474 Eh     change       -0.2815066E-03 Eh
   gradient norm :     0.0078570 Eh/α   predicted     0.0000000E+00 (-100.00%)
   displ. norm   :     0.0698312 α      lambda       -0.1821893E-03
   maximum displ.:     0.0261056 α      in ANC's #26, #21, #17, ...

........................................................................
.............................. CYCLE   44 ..............................
........................................................................

 iter      E             dE          RMSdq      gap      omega  full diag
   1   -109.8692590 -0.109869E+03  0.209E-02    2.13       0.0  T
   2   -109.8692596 -0.609568E-06  0.120E-02    2.13       1.0  T
   3   -109.8692593  0.310473E-06  0.305E-03    2.13       3.8  T
   4   -109.8692596 -0.357459E-06  0.126E-03    2.13       9.1  T
   5   -109.8692597 -0.559453E-07  0.633E-04    2.13      18.2  T
   6   -109.8692597 -0.121754E-07  0.325E-04    2.13      35.6  T
     SCC iter.                  ...        0 min,  1.047 sec
     gradient                   ...        0 min,  0.139 sec
 * total energy  :  -108.1147833 Eh     change       -0.1359762E-03 Eh
   gradient norm :     0.0032112 Eh/α   predicted    -0.9159111E-04 ( -32.64%)
   displ. norm   :     0.1405663 α      lambda       -0.1633713E-03
   maximum displ.:     0.0539553 α      in ANC's #26, #4, #21, ...

........................................................................
.............................. CYCLE   45 ..............................
........................................................................

 iter      E             dE          RMSdq      gap      omega  full diag
   1   -109.8710888 -0.109871E+03  0.325E-02    2.13       0.0  T
   2   -109.8710895 -0.678193E-06  0.186E-02    2.13       1.0  T
   3   -109.8710888  0.674017E-06  0.420E-03    2.13       2.8  T
   4   -109.8710895 -0.662610E-06  0.200E-03    2.13       5.8  T
   5   -109.8710896 -0.152850E-06  0.839E-04    2.13      13.8  T
   6   -109.8710897 -0.458065E-07  0.316E-04    2.13      36.6  T
     SCC iter.                  ...        0 min,  1.060 sec
     gradient                   ...        0 min,  0.114 sec
 * total energy  :  -108.1148958 Eh     change       -0.1124713E-03 Eh
   gradient norm :     0.0028715 Eh/α   predicted    -0.8330143E-04 ( -25.94%)
   displ. norm   :     0.1724370 α      lambda       -0.1147168E-03
   maximum displ.:     0.0662253 α      in ANC's #26, #4, #15, ...

........................................................................
.............................. CYCLE   46 ..............................
........................................................................

 iter      E             dE          RMSdq      gap      omega  full diag
   1   -109.8714101 -0.109871E+03  0.349E-02    2.14       0.0  T
   2   -109.8714106 -0.580056E-06  0.195E-02    2.14       1.0  T
   3   -109.8714103  0.318663E-06  0.419E-03    2.14       2.8  T
   4   -109.8714107 -0.345275E-06  0.216E-03    2.14       5.3  T
   5   -109.8714108 -0.120469E-06  0.705E-04    2.14      16.4  T
   6   -109.8714108 -0.174553E-07  0.311E-04    2.14      37.1  T
     SCC iter.                  ...        0 min,  0.969 sec
     gradient                   ...        0 min,  0.118 sec
 * total energy  :  -108.1149860 Eh     change       -0.9015922E-04 Eh
   gradient norm :     0.0046637 Eh/α   predicted    -0.5933760E-04 ( -34.19%)
   displ. norm   :     0.3227651 α      lambda       -0.1833807E-03
   maximum displ.:     0.1200627 α      in ANC's #26, #4, #15, ...

........................................................................
.............................. CYCLE   47 ..............................
........................................................................

 iter      E             dE          RMSdq      gap      omega  full diag
   1   -109.8698831 -0.109870E+03  0.596E-02    2.13       0.0  T
   2   -109.8698853 -0.212018E-05  0.319E-02    2.13       1.0  T
   3   -109.8698845  0.732139E-06  0.770E-03    2.13       1.5  T
   4   -109.8698852 -0.696579E-06  0.411E-03    2.14       2.8  T
   5   -109.8698857 -0.473790E-06  0.117E-03    2.13       9.9  T
   6   -109.8698858 -0.680759E-07  0.403E-04    2.13      28.7  T
   7   -109.8698858 -0.372800E-08  0.243E-04    2.13      47.5  T
     SCC iter.                  ...        0 min,  1.248 sec
     gradient                   ...        0 min,  0.125 sec
 * total energy  :  -108.1151135 Eh     change       -0.1275598E-03 Eh
   gradient norm :     0.0061504 Eh/α   predicted    -0.1012434E-03 ( -20.63%)
   displ. norm   :     0.2687583 α      lambda       -0.1448459E-03
   maximum displ.:     0.0938489 α      in ANC's #4, #26, #15, ...

........................................................................
.............................. CYCLE   48 ..............................
........................................................................

 iter      E             dE          RMSdq      gap      omega  full diag
   1   -109.8685708 -0.109869E+03  0.477E-02    2.15       0.0  T
   2   -109.8685722 -0.140518E-05  0.249E-02    2.15       1.0  T
   3   -109.8685718  0.419047E-06  0.587E-03    2.15       2.0  T
   4   -109.8685721 -0.243610E-06  0.353E-03    2.14       3.3  T
   5   -109.8685725 -0.452486E-06  0.107E-03    2.15      10.8  T
   6   -109.8685726 -0.631828E-07  0.458E-04    2.14      25.2  T
   7   -109.8685726 -0.855458E-08  0.260E-04    2.15      44.5  T
     SCC iter.                  ...        0 min,  1.128 sec
     gradient                   ...        0 min,  0.115 sec
 * total energy  :  -108.1152201 Eh     change       -0.1065954E-03 Eh
   gradient norm :     0.0063200 Eh/α   predicted    -0.7765566E-04 ( -27.15%)
   displ. norm   :     0.2734494 α      lambda       -0.2082811E-03
   maximum displ.:     0.1015293 α      in ANC's #4, #16, #2, ...

........................................................................
.............................. CYCLE   49 ..............................
........................................................................

 iter      E             dE          RMSdq      gap      omega  full diag
   1   -109.8682452 -0.109868E+03  0.513E-02    2.14       0.0  T
   2   -109.8682471 -0.187985E-05  0.261E-02    2.14       1.0  T
   3   -109.8682469  0.231747E-06  0.623E-03    2.14       1.9  T
   4   -109.8682471 -0.215269E-06  0.338E-03    2.14       3.4  T
   5   -109.8682475 -0.349061E-06  0.110E-03    2.14      10.5  T
   6   -109.8682475 -0.711239E-07  0.382E-04    2.14      30.2  T
   7   -109.8682475 -0.799395E-08  0.185E-04    2.14      62.3  T
     SCC iter.                  ...        0 min,  1.269 sec
     gradient                   ...        0 min,  0.119 sec
 * total energy  :  -108.1153682 Eh     change       -0.1480484E-03 Eh
   gradient norm :     0.0056982 Eh/α   predicted    -0.1119287E-03 ( -24.40%)
   displ. norm   :     0.2593455 α      lambda       -0.1659052E-03
   maximum displ.:     0.0967277 α      in ANC's #4, #2, #28, ...

........................................................................
.............................. CYCLE   50 ..............................
........................................................................

 iter      E             dE          RMSdq      gap      omega  full diag
   1   -109.8685267 -0.109869E+03  0.461E-02    2.14       0.0  T
   2   -109.8685280 -0.127644E-05  0.245E-02    2.14       1.0  T
   3   -109.8685277  0.305410E-06  0.566E-03    2.14       2.0  T
   4   -109.8685281 -0.362622E-06  0.282E-03    2.14       4.1  T
   5   -109.8685283 -0.218401E-06  0.916E-04    2.14      12.6  T
   6   -109.8685283 -0.501412E-07  0.315E-04    2.14      36.7  T
     SCC iter.                  ...        0 min,  0.893 sec
     gradient                   ...        0 min,  0.168 sec
 * total energy  :  -108.1154961 Eh     change       -0.1278833E-03 Eh
   gradient norm :     0.0061061 Eh/α   predicted    -0.8853501E-04 ( -30.77%)
   displ. norm   :     0.3204645 α      lambda       -0.1897230E-03
   maximum displ.:     0.1211604 α      in ANC's #4, #2, #13, ...

........................................................................
.............................. CYCLE   51 ..............................
........................................................................

 iter      E             dE          RMSdq      gap      omega  full diag
   1   -109.8690401 -0.109869E+03  0.544E-02    2.14       0.0  T
   2   -109.8690418 -0.170285E-05  0.297E-02    2.14       1.0  T
   3   -109.8690410  0.840522E-06  0.699E-03    2.14       1.7  T
   4   -109.8690418 -0.845793E-06  0.340E-03    2.14       3.4  T
   5   -109.8690421 -0.229048E-06  0.175E-03    2.14       6.6  T
   6   -109.8690423 -0.240717E-06  0.499E-04    2.14      23.1  T
   7   -109.8690423 -0.991825E-08  0.279E-04    2.14      41.4  T
     SCC iter.                  ...        0 min,  1.147 sec
     gradient                   ...        0 min,  0.128 sec
 * total energy  :  -108.1156367 Eh     change       -0.1406636E-03 Eh
   gradient norm :     0.0055776 Eh/α   predicted    -0.1046088E-03 ( -25.63%)
   displ. norm   :     0.3194052 α      lambda       -0.1516236E-03
   maximum displ.:     0.1319399 α      in ANC's #2, #4, #13, ...

........................................................................
.............................. CYCLE   52 ..............................
........................................................................

 iter      E             dE          RMSdq      gap      omega  full diag
   1   -109.8695652 -0.109870E+03  0.479E-02    2.15       0.0  T
   2   -109.8695663 -0.114477E-05  0.271E-02    2.15       1.0  T
   3   -109.8695653  0.102833E-05  0.578E-03    2.14       2.0  T
   4   -109.8695665 -0.117494E-05  0.241E-03    2.15       4.8  T
   5   -109.8695666 -0.132933E-06  0.119E-03    2.14       9.7  T
   6   -109.8695667 -0.853211E-07  0.431E-04    2.15      26.8  T
   7   -109.8695667 -0.119388E-07  0.188E-04    2.15      61.5  T
     SCC iter.                  ...        0 min,  1.250 sec
     gradient                   ...        0 min,  0.120 sec
 * total energy  :  -108.1157499 Eh     change       -0.1131346E-03 Eh
   gradient norm :     0.0042896 Eh/α   predicted    -0.8355024E-04 ( -26.15%)
   displ. norm   :     0.3079635 α      lambda       -0.1253939E-03
   maximum displ.:     0.1372963 α      in ANC's #2, #4, #7, ...

........................................................................
.............................. CYCLE   53 ..............................
........................................................................

 iter      E             dE          RMSdq      gap      omega  full diag
   1   -109.8703206 -0.109870E+03  0.450E-02    2.14       0.0  T
   2   -109.8703213 -0.760700E-06  0.256E-02    2.14       1.0  T
   3   -109.8703208  0.522982E-06  0.449E-03    2.14       2.6  T
   4   -109.8703214 -0.628691E-06  0.196E-03    2.14       5.9  T
   5   -109.8703215 -0.773495E-07  0.994E-04    2.14      11.6  T
   6   -109.8703216 -0.648368E-07  0.344E-04    2.14      33.6  T
     SCC iter.                  ...        0 min,  0.920 sec
     gradient                   ...        0 min,  0.114 sec
 * total energy  :  -108.1158413 Eh     change       -0.9140512E-04 Eh
   gradient norm :     0.0026783 Eh/α   predicted    -0.6864572E-04 ( -24.90%)
   displ. norm   :     0.3385980 α      lambda       -0.9576330E-04
   maximum displ.:     0.1496619 α      in ANC's #2, #4, #7, ...

........................................................................
.............................. CYCLE   54 ..............................
........................................................................

 iter      E             dE          RMSdq      gap      omega  full diag
   1   -109.8690290 -0.109869E+03  0.487E-02    2.15       0.0  T
   2   -109.8690300 -0.986224E-06  0.278E-02    2.15       1.0  T
   3   -109.8690296  0.346800E-06  0.421E-03    2.15       2.7  T
   4   -109.8690299 -0.309029E-06  0.236E-03    2.15       4.9  T
   5   -109.8690302 -0.252257E-06  0.735E-04    2.15      15.7  T
   6   -109.8690302 -0.189407E-07  0.352E-04    2.15      32.8  T
     SCC iter.                  ...        0 min,  0.620 sec
     gradient                   ...        0 min,  0.136 sec
 * total energy  :  -108.1158961 Eh     change       -0.5479960E-04 Eh
   gradient norm :     0.0038000 Eh/α   predicted    -0.5338566E-04 (  -2.58%)
   displ. norm   :     0.3505285 α      lambda       -0.2038676E-03
   maximum displ.:     0.1848067 α      in ANC's #2, #3, #4, ...

........................................................................
.............................. CYCLE   55 ..............................
........................................................................

 iter      E             dE          RMSdq      gap      omega  full diag
   1   -109.8776838 -0.109878E+03  0.768E-02    2.18       0.0  T
   2   -109.8776915 -0.768825E-05  0.406E-02    2.18       1.0  T
   3   -109.8776901  0.133325E-05  0.119E-02    2.18       1.0  T
   4   -109.8776921 -0.200711E-05  0.582E-03    2.18       2.0  T
   5   -109.8776925 -0.356114E-06  0.258E-03    2.18       4.5  T
   6   -109.8776928 -0.336387E-06  0.106E-03    2.18      10.9  T
   7   -109.8776929 -0.291758E-07  0.688E-04    2.18      16.8  T
   8   -109.8776929 -0.502195E-08  0.414E-04    2.18      27.9  T
     SCC iter.                  ...        0 min,  1.079 sec
     gradient                   ...        0 min,  0.115 sec
 * total energy  :  -108.1157457 Eh     change        0.1503425E-03 Eh
   gradient norm :     0.0128204 Eh/α   predicted    -0.1144593E-03 (-176.13%)
   displ. norm   :     0.1151197 α      lambda       -0.4159847E-03
[...]
       100        2.0000           -0.4751611             -12.9298
       101        2.0000           -0.4673731             -12.7179 (HOMO)
       102                         -0.3749489             -10.2029 (LUMO)
       103                         -0.3678587             -10.0099
       104                         -0.3567066              -9.7065
       105                         -0.3493653              -9.5067
       106                         -0.3315291              -9.0214
       107                         -0.3281925              -8.9306
       108                         -0.3246563              -8.8343
       109                         -0.3231232              -8.7926
       110                         -0.2951090              -8.0303
       111                         -0.2887699              -7.8578
       112                         -0.2807428              -7.6394
       ...                                ...                  ...
       210                          1.1271420              30.6711
      -------------------------------------------------------------
                  HL-Gap            0.0924242 Eh            2.5150 eV
             Fermi-level           -0.4211610 Eh          -11.4604 eV

     #   Z          covCN         q      C6AA      α(0)
     1   6 C        3.861    -0.036    21.184     6.545
     2   7 N        2.683    -0.126    23.746     7.237
     3   6 C        3.197     0.054    26.280     8.357
     4   6 C        2.915    -0.049    29.218     8.864
     5   6 C        2.919    -0.032    28.806     8.801
     6   6 C        2.987     0.012    27.736     8.639
     7   6 C        2.919    -0.031    28.770     8.796
     8   6 C        2.915    -0.022    28.564     8.764
     9   6 C        2.917    -0.023    28.568     8.765
    10   6 C        2.917    -0.031    28.781     8.797
    11   6 C        2.988     0.013    27.711     8.635
    12   6 C        2.979    -0.007    28.188     8.709
    13   6 C        2.977    -0.006    28.168     8.706
    14   6 C        3.098     0.051    26.731     8.473
    15   6 C        2.915    -0.049    29.226     8.865
    16   6 C        2.919    -0.033    28.827     8.805
    17   6 C        2.987     0.014    27.695     8.633
    18   6 C        2.920    -0.030    28.752     8.793
    19   6 C        2.915    -0.021    28.539     8.760
    20   6 C        2.917    -0.022    28.553     8.763
    21   6 C        2.917    -0.032    28.789     8.799
    22   6 C        2.988     0.013    27.722     8.637
    23   7 N        2.683    -0.115    23.503     7.200
    24   6 C        3.809    -0.033    21.156     6.547
    25  15 P        4.601     0.246   149.769    21.984
    26  34 Se       1.892    -0.009   235.990    26.768
    27  16 S        2.050    -0.070   143.980    20.195
    28   6 C        2.972     0.045    26.981     8.520
    29   6 C        2.941    -0.033    28.815     8.804
    30   6 C        2.923    -0.023    28.571     8.766
    31   6 C        2.919    -0.026    28.642     8.776
    32   6 C        2.922    -0.021    28.522     8.758
    33   6 C        2.986    -0.031    28.762     8.797
    34   7 N        2.678    -0.125    23.727     7.234
    35   6 C        3.934     0.009    20.355     6.412
    36   6 C        3.801    -0.068    21.808     6.649
    37   6 C        3.801    -0.058    21.614     6.619
    38   6 C        3.802    -0.064    21.724     6.636
    39   6 C        3.801    -0.066    21.774     6.644
    40   6 C        3.847     0.003    20.489     6.439
    41   1 H        0.925     0.066     2.131     2.283
    42   1 H        0.925     0.079     1.991     2.207
    43   1 H        0.924     0.052     2.293     2.368
    44   1 H        0.926     0.039     2.457     2.451
    45   1 H        0.926     0.046     2.367     2.406
    46   1 H        0.926     0.044     2.390     2.418
    47   1 H        0.926     0.050     2.314     2.379
    48   1 H        0.926     0.049     2.334     2.389
    49   1 H        0.926     0.040     2.452     2.448
    50   1 H        0.926     0.042     2.419     2.432
    51   1 H        0.926     0.054     2.268     2.355
    52   1 H        0.926     0.049     2.331     2.388
    53   1 H        0.926     0.052     2.295     2.369
    54   1 H        0.926     0.049     2.337     2.390
    55   1 H        0.926     0.039     2.461     2.453
    56   1 H        0.924     0.065     2.141     2.288
    57   1 H        0.924     0.066     2.134     2.284
    58   1 H        0.924     0.068     2.113     2.273
    59   1 H        0.925     0.047     2.360     2.403
    60   1 H        0.926     0.055     2.260     2.351
    61   1 H        0.926     0.056     2.244     2.342
    62   1 H        0.926     0.055     2.253     2.347
    63   1 H        0.926     0.046     2.365     2.405
    64   1 H        0.924     0.046     2.374     2.409
    65   1 H        0.924     0.056     2.248     2.345
    66   1 H        0.924     0.054     2.269     2.356
    67   1 H        0.924     0.053     2.279     2.361
    68   1 H        0.924     0.036     2.504     2.475
    69   1 H        0.924     0.049     2.331     2.388
    70   1 H        0.924     0.048     2.340     2.392
    71   1 H        0.924     0.051     2.312     2.378
    72   1 H        0.924     0.059     2.215     2.328
    73   1 H        0.924     0.044     2.398     2.422
    74   1 H        0.924     0.073     2.057     2.243
    75   1 H        0.923     0.055     2.263     2.352

 Mol. C6AA /au·bohr⁶  :      79467.116473
 Mol. C8AA /au·bohr⁸  :    2240160.320731
 Mol. α(0) /au        :        452.767906


Wiberg/Mayer (AO) data.
largest (>0.10) Wiberg bond orders for each atom

 ---------------------------------------------------------------------------
     #   Z sym  total        # sym  WBO       # sym  WBO       # sym  WBO
 ---------------------------------------------------------------------------
     1   6 C    3.962 --    42 H    0.976     2 N    0.974    43 H    0.971
                            41 H    0.971
     2   7 N    3.412 --    25 P    1.201     1 C    0.974     3 C    0.971
     3   6 C    3.951 --    12 C    1.447     4 C    1.290     2 N    0.971
     4   6 C    3.988 --     5 C    1.551     3 C    1.290    44 H    0.963
     5   6 C    3.985 --     4 C    1.551     6 C    1.276    45 H    0.966
                            12 C    0.107
     6   6 C    3.987 --     7 C    1.278     5 C    1.276    11 C    1.254
     7   6 C    3.989 --     8 C    1.557     6 C    1.278    46 H    0.967
                            10 C    0.117
     8   6 C    3.986 --     7 C    1.557     9 C    1.321    47 H    0.969
     9   6 C    3.988 --    10 C    1.554     8 C    1.321    48 H    0.970
    10   6 C    3.989 --     9 C    1.554    11 C    1.283    49 H    0.966
                             7 C    0.117
    11   6 C    3.987 --    10 C    1.283     6 C    1.254    12 C    1.237
    12   6 C    3.986 --     3 C    1.447    11 C    1.237    13 C    1.034
                             5 C    0.107
    13   6 C    3.986 --    14 C    1.463    22 C    1.229    12 C    1.034
                            16 C    0.104
    14   6 C    3.945 --    13 C    1.463    15 C    1.284    23 N    0.958
    15   6 C    3.984 --    16 C    1.558    14 C    1.284    50 H    0.962
    16   6 C    3.984 --    15 C    1.558    17 C    1.272    51 H    0.966
                            13 C    0.104
    17   6 C    3.988 --    18 C    1.282    16 C    1.272    22 C    1.255
    18   6 C    3.988 --    19 C    1.553    17 C    1.282    52 H    0.967
                            21 C    0.117
    19   6 C    3.987 --    18 C    1.553    20 C    1.324    53 H    0.969
    20   6 C    3.990 --    21 C    1.551    19 C    1.324    54 H    0.970
    21   6 C    3.989 --    20 C    1.551    22 C    1.287    55 H    0.965
                            18 C    0.117
    22   6 C    3.986 --    21 C    1.287    17 C    1.255    13 C    1.229
    23   7 N    3.435 --    25 P    1.247    24 C    0.971    14 C    0.958
    24   6 C    3.958 --    58 H    0.977    57 H    0.972    23 N    0.971
                            56 H    0.961
    25  15 P    5.090 --    23 N    1.247    34 N    1.244     2 N    1.201
                            26 Se   0.974
    26  34 Se   2.612 --    27 S    1.219    25 P    0.974
    27  16 S    2.415 --    26 Se   1.219    28 C    0.977
    28   6 C    3.950 --    29 C    1.410    33 C    1.392    27 S    0.977
                            31 C    0.102
    29   6 C    3.989 --    30 C    1.435    28 C    1.410    59 H    0.947
                            32 C    0.108
    30   6 C    3.990 --    31 C    1.437    29 C    1.435    60 H    0.967
                            33 C    0.110
    31   6 C    3.986 --    30 C    1.437    32 C    1.433    61 H    0.969
                            28 C    0.102
    32   6 C    3.985 --    33 C    1.443    31 C    1.433    62 H    0.967
                            29 C    0.108
    33   6 C    3.987 --    32 C    1.443    28 C    1.392    63 H    0.967
                            30 C    0.110
    34   7 N    3.412 --    25 P    1.244    40 C    0.967    35 C    0.955
    35   6 C    3.961 --    36 C    0.996    64 H    0.965    34 N    0.955
                            65 H    0.950
    36   6 C    3.989 --    37 C    1.007    35 C    0.996    66 H    0.974
                            67 H    0.973
    37   6 C    3.996 --    38 C    1.008    36 C    1.007    69 H    0.976
                            68 H    0.968
    38   6 C    3.994 --    37 C    1.008    39 C    1.008    71 H    0.975
                            70 H    0.974
    39   6 C    3.992 --    38 C    1.008    40 C    1.001    72 H    0.971
                            73 H    0.958
    40   6 C    3.962 --    39 C    1.001    34 N    0.967    74 H    0.964
                            75 H    0.947
    41   1 H    0.995 --     1 C    0.971
    42   1 H    0.993 --     1 C    0.976
    43   1 H    0.997 --     1 C    0.971
    44   1 H    0.997 --     4 C    0.963
    45   1 H    0.996 --     5 C    0.966
    46   1 H    0.997 --     7 C    0.967
    47   1 H    0.997 --     8 C    0.969
    48   1 H    0.997 --     9 C    0.970
    49   1 H    0.998 --    10 C    0.966
    50   1 H    0.997 --    15 C    0.962
    51   1 H    0.995 --    16 C    0.966
    52   1 H    0.997 --    18 C    0.967
    53   1 H    0.996 --    19 C    0.969
    54   1 H    0.997 --    20 C    0.970
    55   1 H    0.998 --    21 C    0.965
    56   1 H    0.995 --    24 C    0.961
    57   1 H    0.995 --    24 C    0.972
    58   1 H    0.995 --    24 C    0.977
    59   1 H    0.998 --    29 C    0.947
    60   1 H    0.997 --    30 C    0.967
    61   1 H    0.995 --    31 C    0.969
    62   1 H    0.996 --    32 C    0.967
    63   1 H    0.998 --    33 C    0.967
    64   1 H    0.997 --    35 C    0.965
    65   1 H    0.997 --    35 C    0.950
    66   1 H    0.997 --    36 C    0.974
    67   1 H    0.996 --    36 C    0.973
    68   1 H    0.999 --    37 C    0.968
    69   1 H    0.997 --    37 C    0.976
    70   1 H    0.997 --    38 C    0.974
    71   1 H    0.997 --    38 C    0.975
    72   1 H    0.996 --    39 C    0.971
    73   1 H    0.998 --    39 C    0.958
    74   1 H    0.994 --    40 C    0.964
    75   1 H    0.997 --    40 C    0.947
 ---------------------------------------------------------------------------

Topologies differ in total number of bonds
Writing topology from bond orders to xtbtopo.mol

molecular dipole:
                 x           y           z       tot (Debye)
 q only:        0.783      -1.010      -0.413
   full:        0.836      -0.854      -0.622       3.425
molecular quadrupole (traceless):
                xx          xy          yy          xz          yz          zz
 q only:       -0.195      -7.990      25.007      -7.578      -7.247     -24.812
  q+dip:       -3.436      -7.347      29.697     -14.615     -11.998     -26.261
   full:       -2.552      -5.909      26.998     -10.466      -7.755     -24.446

           -------------------------------------------------
          |                Geometry Summary                 |
           -------------------------------------------------

      molecular mass/u    :      627.6609944
   center of mass at/Å    :        0.3020823       0.2981989       0.0226214
  moments of inertia/u·Å² :        0.5185454E+04   0.5570695E+04   0.9342786E+04
rotational constants/cm⁻¹ :        0.3250946E-02   0.3026127E-02   0.1804347E-02

 * 78 selected distances

     #   Z          #   Z                                           value/Å
     1   6 C        2   7 N                                       1.4586060
     2   7 N        3   6 C                                       1.4340676
     3   6 C        4   6 C                                       1.4058357
     4   6 C        5   6 C                                       1.3649616
     5   6 C        6   6 C                                       1.4094827
     6   6 C        7   6 C                                       1.4102327
     7   6 C        8   6 C                                       1.3663919
     8   6 C        9   6 C                                       1.4035221
     9   6 C       10   6 C                                       1.3671212
     6   6 C       11   6 C                                       1.4194944
    10   6 C       11   6 C                                       1.4114119
     3   6 C       12   6 C                                       1.3787695
    11   6 C       12   6 C                                       1.4220837
    13   6 C       14   6 C                                       1.3757770
    14   6 C       15   6 C                                       1.4073618
    15   6 C       16   6 C                                       1.3637837
    16   6 C       17   6 C                                       1.4106108
    17   6 C       18   6 C                                       1.4100510
    18   6 C       19   6 C                                       1.3666335
    19   6 C       20   6 C                                       1.4025317
    20   6 C       21   6 C                                       1.3676902
    13   6 C       22   6 C                                       1.4251076
    17   6 C       22   6 C                                       1.4200455
    21   6 C       22   6 C                                       1.4110796
    14   6 C       23   7 N                                       1.4324380
    23   7 N       24   6 C                                       1.4552270
     2   7 N       25  15 P                                       1.6678962
    23   7 N       25  15 P                                       1.6488362
    25  15 P       26  34 Se                                      2.2746497 (max)
    28   6 C       29   6 C                                       1.3827230
    29   6 C       30   6 C                                       1.3838900
    30   6 C       31   6 C                                       1.3846705
    31   6 C       32   6 C                                       1.3854538
    28   6 C       33   6 C                                       1.3874539
    32   6 C       33   6 C                                       1.3827718
    25  15 P       34   7 N                                       1.6491653
    34   7 N       35   6 C                                       1.4593454
    35   6 C       36   6 C                                       1.5328966
    36   6 C       37   6 C                                       1.5292527
    37   6 C       38   6 C                                       1.5289114
    38   6 C       39   6 C                                       1.5256538
    34   7 N       40   6 C                                       1.4537250
    39   6 C       40   6 C                                       1.5274317
     1   6 C       41   1 H                                       1.0877352
     1   6 C       42   1 H                                       1.0887589
     1   6 C       43   1 H                                       1.0942823
     4   6 C       44   1 H                                       1.0789849
     5   6 C       45   1 H                                       1.0791739
     7   6 C       46   1 H                                       1.0797010
     8   6 C       47   1 H                                       1.0791297
     9   6 C       48   1 H                                       1.0792292
    10   6 C       49   1 H                                       1.0793612
    15   6 C       50   1 H                                       1.0794073
    16   6 C       51   1 H                                       1.0793207
    18   6 C       52   1 H                                       1.0797604
    19   6 C       53   1 H                                       1.0789801
    20   6 C       54   1 H                                       1.0792325
    21   6 C       55   1 H                                       1.0789106
    24   6 C       56   1 H                                       1.0902965
    24   6 C       57   1 H                                       1.0905994
    24   6 C       58   1 H                                       1.0917454
    29   6 C       59   1 H                                       1.0834178
    30   6 C       60   1 H                                       1.0790992
    31   6 C       61   1 H                                       1.0787769 (min)
    32   6 C       62   1 H                                       1.0788077
    33   6 C       63   1 H                                       1.0792068
    35   6 C       64   1 H                                       1.0969397
    35   6 C       65   1 H                                       1.0952029
    36   6 C       66   1 H                                       1.0909081
    36   6 C       67   1 H                                       1.0910287
    37   6 C       68   1 H                                       1.0916291
    37   6 C       69   1 H                                       1.0908818
    38   6 C       70   1 H                                       1.0915985
    38   6 C       71   1 H                                       1.0912443
    39   6 C       72   1 H                                       1.0907063
    39   6 C       73   1 H                                       1.0945375
    40   6 C       74   1 H                                       1.0916724
    40   6 C       75   1 H                                       1.0980536

 * 5 distinct bonds (by element types)

   Z      Z             #   av. dist./Å        max./Å        min./Å
   1 H    6 C          35     1.0859520     1.0980536     1.0787769
   6 C    6 C          33     1.4142754     1.5328966     1.3637837
   6 C    7 N           6     1.4489015     1.4593454     1.4324380
   7 N   15 P           3     1.6552992     1.6678962     1.6488362
  15 P   34 Se          1     2.2746497     2.2746497     2.2746497


optimized geometry written to: xtbopt.xyz


           -------------------------------------------------
          | TOTAL ENERGY             -108.123221459323 Eh   |
          | GRADIENT NORM               0.000093975433 Eh/α |
          | HOMO-LUMO GAP               2.514990572489 eV   |
           -------------------------------------------------

------------------------------------------------------------------------
 * finished run on 2024/12/16 at 17:37:43.924     
------------------------------------------------------------------------
 total:
 * wall-time:     0 d,  0 h,  3 min, 44.115 sec
 *  cpu-time:     0 d,  0 h, 29 min, 24.315 sec
 * ratio c/w:     7.872 speedup
 SCF:
 * wall-time:     0 d,  0 h,  0 min,  3.038 sec
 *  cpu-time:     0 d,  0 h,  0 min, 24.025 sec
 * ratio c/w:     7.907 speedup
 ANC optimizer:
 * wall-time:     0 d,  0 h,  3 min, 40.883 sec
 *  cpu-time:     0 d,  0 h, 28 min, 58.849 sec
 * ratio c/w:     7.872 speedup

