75
 energy: -107.952906382595 gnorm: 0.274627729368 xtb: 6.7.1 (edcfbbe)
C            0.84959800000000       -0.40983200000000       -2.65467000000000
N            0.34805800000000       -0.08511400000000       -1.34634800000000
C           -0.75036100000000        0.82838400000000       -1.38218800000000
C           -0.63704700000000        1.78523200000000       -2.39258800000000
C           -1.54659000000000        2.82253900000000       -2.39983600000000
C           -2.55813000000000        2.95031200000000       -1.44125000000000
C           -3.37676200000000        4.05668300000000       -1.42237600000000
C           -4.26642600000000        4.16294900000000       -0.38235700000000
C           -4.40427000000000        3.26117100000000        0.63918500000000
C           -3.58848600000000        2.15451200000000        0.61716000000000
C           -2.67982600000000        1.98431500000000       -0.41337700000000
C           -1.74969600000000        0.95448500000000       -0.46134000000000
C           -2.17011900000000       -0.10883200000000        0.51210600000000
C           -1.37537200000000       -0.65482800000000        1.48067800000000
C           -1.95279400000000       -1.42968500000000        2.47503800000000
C           -3.31569700000000       -1.62104800000000        2.43227600000000
C           -4.12676800000000       -1.07269400000000        1.42864100000000
C           -5.46693400000000       -1.37213700000000        1.35724400000000
C           -6.16739000000000       -0.88992800000000        0.28114700000000
C           -5.63754600000000       -0.13397600000000       -0.73414500000000
C           -4.29854300000000        0.16820000000000       -0.66029600000000
C           -3.54419900000000       -0.28042700000000        0.41028200000000
N            0.04902400000000       -0.68102400000000        1.49444800000000
C            0.59956200000000       -0.73137200000000        2.82473100000000
P            1.08799500000000       -0.71914900000000        0.09330300000000
Se           2.65431900000000        0.39600800000000        0.59059400000000
S            2.15638000000000        2.33955800000000        0.28007200000000
C            3.76081500000000        3.14861400000000        0.14253800000000
C            4.37709300000000        3.27161700000000       -1.09374800000000
C            5.62233000000000        3.89573700000000       -1.22430100000000
C            6.25428600000000        4.40188700000000       -0.09673700000000
C            5.63980600000000        4.28028700000000        1.14244300000000
C            4.40027300000000        3.65714800000000        1.26051700000000
N            1.72344500000000       -2.28915300000000       -0.20984700000000
C            0.73923500000000       -3.15048100000000       -0.78323200000000
C            0.44531400000000       -4.23163300000000        0.25230300000000
C            1.75270900000000       -4.46013400000000        1.02299500000000
C            2.86564400000000       -4.69313200000000        0.04924600000000
C            3.76859200000000       -3.46420900000000        0.04609800000000
C            3.03531100000000       -2.36597100000000       -0.73668900000000
H            1.24201100000000       -1.43921400000000       -2.69327600000000
H            0.06401700000000       -0.36885300000000       -3.43788600000000
H            1.73143100000000        0.23243600000000       -2.93232600000000
H            0.14997800000000        1.63540700000000       -3.09343300000000
H           -1.44960500000000        3.55385500000000       -3.19248600000000
H           -3.30652400000000        4.80762400000000       -2.21072900000000
H           -4.91505600000000        5.02400500000000       -0.36726400000000
H           -5.13652000000000        3.41891600000000        1.44009000000000
H           -3.63927500000000        1.53284600000000        1.49880800000000
H           -1.28470600000000       -1.82256700000000        3.21862500000000
H           -3.77004300000000       -2.22277100000000        3.21277000000000
H           -5.92319400000000       -1.97143900000000        2.14182700000000
H           -7.21259000000000       -1.11686700000000        0.22918900000000
H           -6.26199500000000        0.21372200000000       -1.57048900000000
H           -3.89213700000000        0.65696700000000       -1.53373000000000
H            1.60699900000000       -0.28557100000000        2.90736200000000
H            0.75437300000000       -1.79418900000000        3.16850200000000
H           -0.01433900000000       -0.16611900000000        3.56285700000000
H            3.90362900000000        2.88231700000000       -2.00223200000000
H            6.09592700000000        3.98404400000000       -2.21378600000000
H            7.20511500000000        4.87031800000000       -0.24760100000000
H            6.15317500000000        4.68524800000000        2.01931200000000
H            3.92024000000000        3.56403200000000        2.24018800000000
H            1.06975600000000       -3.61070900000000       -1.74392800000000
H           -0.22740200000000       -2.64904900000000       -1.00675300000000
H            0.17007800000000       -5.17683600000000       -0.22327800000000
H           -0.34626800000000       -3.90475800000000        0.93859000000000
H            1.93526300000000       -3.53284800000000        1.63509900000000
H            1.61683600000000       -5.30118200000000        1.71963500000000
H            2.51232800000000       -4.84002700000000       -0.99269300000000
H            3.43338300000000       -5.61993100000000        0.29413600000000
H            4.73721100000000       -3.72318600000000       -0.38592100000000
H            3.87344100000000       -3.07761100000000        1.08003700000000
H            3.07900700000000       -2.67099400000000       -1.81567300000000
H            3.60862200000000       -1.44189200000000       -0.64126900000000
75
 energy: -108.032764635795 gnorm: 0.116354629347 xtb: 6.7.1 (edcfbbe)
C            0.86564649725631       -0.43372840397316       -2.64863501480057
N            0.31898642321246       -0.10447510408147       -1.34634965098137
C           -0.73469045058803        0.84583659344364       -1.37113491599474
C           -0.64137161809004        1.80554864893993       -2.39057736304106
C           -1.54429806653118        2.82763323932221       -2.41686157769966
C           -2.53913967763447        2.97251683916818       -1.43769860396870
C           -3.39097702864303        4.07354785047607       -1.42352653324542
C           -4.29185389498406        4.19125936282083       -0.39680607221600
C           -4.40495651317439        3.27571446855612        0.63701984518876
C           -3.56778857892707        2.19196508855334        0.63973508176412
C           -2.63750830541111        2.01912959228678       -0.39604520474240
C           -1.72733791223285        0.94463551149878       -0.44313795431394
C           -2.14463925329099       -0.11916795603248        0.49408754320444
C           -1.36791482978445       -0.68780540729688        1.46236991321023
C           -1.96835814512379       -1.44482976544491        2.47544030379484
C           -3.32004779471721       -1.62558662914643        2.45068007564290
C           -4.12552520943800       -1.10166996991581        1.42610123057686
C           -5.48798932488669       -1.37606089569362        1.35847737722288
C           -6.20416908267163       -0.89416879736627        0.29415949082970
C           -5.64735634163721       -0.14478432267489       -0.73138869812110
C           -4.30626287939322        0.12653157742540       -0.68193949355261
C           -3.53327240529011       -0.33389900512349        0.39531286858591
N            0.05161889776279       -0.66983026635648        1.47736243163483
C            0.62353504211430       -0.73353292684672        2.81336274364770
P            1.04638293268603       -0.71535034657984        0.07396834561651
Se           2.82532710733536        0.40479140611999        0.64476950709822
S            2.11435463095701        2.44010947282757        0.27012908086076
C            3.77420367832022        3.14890175040887        0.13627181758638
C            4.37988701370303        3.26854439693099       -1.10453670740076
C            5.61564997457645        3.89189401574767       -1.22621924641453
C            6.24742297602011        4.39805113414584       -0.10009297329680
C            5.63916722688842        4.28012036101057        1.14123515820620
C            4.40450611668784        3.65782663926387        1.26243822049322
N            1.70034446549219       -2.25048311410488       -0.24745467458557
C            0.71374474902147       -3.15715819815964       -0.78267877643423
C            0.44199815525975       -4.24227180785800        0.25948618450345
C            1.73903501385467       -4.47641431902225        1.03301076648592
C            2.88043527596686       -4.70451256539845        0.06085921947702
C            3.77324502781220       -3.46901289753848        0.04890333175403
C            3.04555053883322       -2.37870677441969       -0.74529526038204
H            1.24736809944966       -1.45552614075606       -2.68443460545625
H            0.08262245613577       -0.37253897366291       -3.41851452377150
H            1.71422454219357        0.22485991519679       -2.92996765124033
H            0.14463474865882        1.67685974303820       -3.10384301172253
H           -1.45589356590035        3.56156756291539       -3.20119811019367
H           -3.31446028734999        4.81493846386964       -2.20566726430872
H           -4.93347888720972        5.05193971984954       -0.37313665988006
H           -5.12769611979499        3.42100005580231        1.43266437436650
H           -3.63029211215524        1.54613763233249        1.50152521692442
H           -1.31909381215549       -1.84831423568748        3.22764416091410
H           -3.77814340592948       -2.22408099116696        3.22217120801165
H           -5.93741289457420       -1.97318143141648        2.13697101677165
H           -7.24810084054280       -1.12614825901870        0.23363971843497
H           -6.25593667879813        0.20538730810339       -1.56021007109192
H           -3.89394724870971        0.64109341792848       -1.53587539227732
H            1.61808033273657       -0.27796268364380        2.88737823103557
H            0.75088317991859       -1.77794441042822        3.16574029252293
H           -0.00287612713808       -0.18090325666452        3.53480392870661
H            3.89997312492510        2.88330138366765       -1.99831501757352
H            6.08550358517035        3.98086745016544       -2.20291942115998
H            7.20490168556645        4.87175222002552       -0.23621552535610
H            6.14365743932668        4.67999240606261        2.01491891515933
H            3.92518755029870        3.56750250228450        2.23312564551925
H            1.06222392446515       -3.60142843860423       -1.73138475996419
H           -0.23111006009892       -2.64024186541840       -1.00971843095336
H            0.15414359513527       -5.17516728064858       -0.22300238561069
H           -0.34930749298873       -3.91366979506312        0.93650946640156
H            1.93395966136177       -3.57171282322873        1.64056355712811
H            1.61354248670919       -5.30961087605514        1.72344343868142
H            2.51944570819174       -4.85567935797614       -0.96791876533715
H            3.44412015763026       -5.61207523453814        0.30611053650392
H            4.74120696357429       -3.70725521981476       -0.38645874351508
H            3.89613193662183       -3.09176432553254        1.07254672285268
H            3.06902229070812       -2.66465495970642       -1.81456538147648
H            3.61133063325651       -1.44844469812321       -0.65121852523921
75
 energy: -108.065288700777 gnorm: 0.046880959907 xtb: 6.7.1 (edcfbbe)
C            0.88079025547279       -0.46023220234011       -2.62843229561145
N            0.29718776958831       -0.13036977055385       -1.32838973415211
C           -0.70393803360965        0.87650794039667       -1.34962946284801
C           -0.63201336181893        1.83951449179309       -2.37762068533728
C           -1.53738793475794        2.84941872363284       -2.42564928958911
C           -2.51421714215689        3.00891826024317       -1.42338144736722
C           -3.40280789067970        4.09819977420435       -1.42006308820534
C           -4.31607127521021        4.22832958536010       -0.41045918175438
C           -4.39561300797679        3.30173845385357        0.63383424645282
C           -3.53649048406742        2.23892839936887        0.65964463240445
C           -2.58907962382671        2.06167784993355       -0.37546369659640
C           -1.70240030784833        0.94451162880842       -0.42094541175749
C           -2.12201151598765       -0.13710029429659        0.47035057863894
C           -1.35403277321880       -0.73706353717937        1.43074477330287
C           -1.97760251598352       -1.47931188148746        2.45803059158319
C           -3.32664839951419       -1.64552134811512        2.45717125760305
C           -4.12775678481693       -1.14568314022596        1.41203530431940
C           -5.51166542306938       -1.38772056081152        1.35595419325443
C           -6.24588229876679       -0.90642634471906        0.30769879582435
C           -5.65719145641218       -0.17112105592105       -0.72632132615998
C           -4.31229142752968        0.07053539102304       -0.70030590116681
C           -3.52197762010874       -0.39779930085352        0.37621678578692
N            0.06920823610510       -0.65445298908704        1.44698575744945
C            0.65407311790538       -0.73085740284206        2.78808634427776
P            1.04948186361687       -0.68507460544716        0.06739219066158
Se           2.86955455014776        0.43644699334688        0.66716420585205
S            2.12272211708987        2.47153922244823        0.26997006982593
C            3.77160366689779        3.18636739436315        0.12608157073627
C            4.37576074344299        3.27741005358679       -1.11648419921735
C            5.61314266566794        3.88514556761443       -1.22828191847921
C            6.24338353379480        4.39344791778965       -0.10341717559792
C            5.64272752625865        4.27679042495335        1.14000365582065
C            4.40455347591139        3.66997149835005        1.26163818381771
N            1.67996778164663       -2.19774720958340       -0.28676061144128
C            0.68754318092262       -3.15371476688057       -0.77728662067916
C            0.43781320912989       -4.24760629515763        0.26714602570971
C            1.72629152831285       -4.49839699774237        1.04212305229478
C            2.89623878975987       -4.72225843390849        0.07916660898024
C            3.77063347746289       -3.47371844578372        0.05036380422767
C            3.05110236064457       -2.39140034963023       -0.75543587928586
H            1.25831937389278       -1.47628146418514       -2.65790777157434
H            0.09977787604187       -0.38662791523402       -3.38911503831896
H            1.70064471302943        0.21237535671678       -2.90961254277375
H            0.14271975158882        1.73568660155841       -3.11390766427161
H           -1.47438645040298        3.57447584275520       -3.21921428966601
H           -3.32867265798128        4.82820074248360       -2.20618844546430
H           -4.96690888286438        5.08262317411853       -0.38839052894715
H           -5.11850791414332        3.43038408471880        1.42274335570535
H           -3.60230941041757        1.56994955870910        1.50325782961191
H           -1.35840907158304       -1.88733920995384        3.23443815825939
H           -3.79324601517324       -2.21767679985367        3.24122463501696
H           -5.96017351567495       -1.97516674165258        2.13729260936740
H           -7.29547463856105       -1.12804635975744        0.24775679407179
H           -6.25484968742157        0.19094255026089       -1.54685828045377
H           -3.88897890572484        0.60525936206615       -1.53605560260439
H            1.63762348367435       -0.26577791033623        2.84405615895763
H            0.75972910519226       -1.76166962485316        3.14231951437573
H            0.01252565107207       -0.18893219528373        3.49113297417339
H            3.88883113390634        2.88572058998960       -1.99580558513300
H            6.07877886257703        3.97580497374660       -2.19658092268382
H            7.20292277911348        4.87524163241871       -0.22093400742078
H            6.13703328600952        4.67348106653236        2.01321810631760
H            3.92769538104264        3.57541099499095        2.22619228095504
H            1.04537846700965       -3.59439736537257       -1.71465051011092
H           -0.24823951666300       -2.63438278558191       -1.00450548709034
H            0.13089445943913       -5.16802575300573       -0.22593263547443
H           -0.35441069984319       -3.92602283157992        0.94186477748882
H            1.93209487336468       -3.61602434023259        1.65274162687947
H            1.60345560806498       -5.33415412887708        1.72209620614698
H            2.53004812277138       -4.89123031478453       -0.93660075816202
H            3.46833134344555       -5.60620081782155        0.34197167454465
H            4.73950128408142       -3.68696637042145       -0.39533265870742
H            3.92483431862245       -3.10538867727254        1.06582587890070
H            3.05382053980018       -2.66880140226285       -1.81559040307409
H            3.61290538029494       -1.45826316124627       -0.66843015241946
75
 energy: -108.079582981813 gnorm: 0.024184621938 xtb: 6.7.1 (edcfbbe)
C            0.88203891816257       -0.47479995155677       -2.60523654279686
N            0.27126349455746       -0.15453424446965       -1.30869602425752
C           -0.67777105658066        0.91149399388224       -1.32778664634495
C           -0.60683366933116        1.88092767260404       -2.35109542185744
C           -1.52204727864240        2.88456087528442       -2.41669751426280
C           -2.49217248821311        3.04742642371247       -1.40526683521406
C           -3.40256038574772        4.12593580666355       -1.41190622740902
C           -4.32651117106124        4.26259608748197       -0.41626277104975
C           -4.37986679003956        3.33202773942231        0.63350409331551
C           -3.50898813687758        2.28095212972168        0.67079918799820
C           -2.55756623052046        2.09735885665409       -0.36175137744140
C           -1.69058204198319        0.95511772182511       -0.40544391342922
C           -2.11603126925671       -0.15407593250865        0.44922380290396
C           -1.34749145241886       -0.78394722809901        1.39642992080151
C           -1.97673503293683       -1.52805891859451        2.42244502395635
C           -3.33003689963948       -1.67988357005801        2.44407036010580
C           -4.13211819996474       -1.18948021559546        1.39299908993395
C           -5.52649407460391       -1.40946830677529        1.34932617181881
C           -6.27467624464583       -0.92588279349399        0.31499533420024
C           -5.66485923282945       -0.20467496181076       -0.72363725510184
C           -4.31830858708915        0.02119109205792       -0.71067570549565
C           -3.51882494281942       -0.44565783946766        0.36148021913522
N            0.07811031692697       -0.64456446232567        1.41384998373884
C            0.66992904530640       -0.72577637374489        2.75571285063981
P            1.06522069476001       -0.66452664943618        0.06415760562328
Se           2.91332914888892        0.47355971114306        0.65168558601772
S            2.12283690660505        2.50304571212348        0.27093621618316
C            3.76690769326915        3.21420359636464        0.11952475597723
C            4.36839251276792        3.29207702175617       -1.12498822207004
C            5.61085287853756        3.88984921391632       -1.23261707490179
C            6.24224668088631        4.39410691451953       -0.10701355749377
C            5.64359593464243        4.28235909045227        1.13702260845047
C            4.40039236171186        3.68642540794468        1.25807212474877
N            1.66756085492378       -2.16514563061474       -0.31003560430929
C            0.66929947496507       -3.14737513236674       -0.76587877510430
C            0.43420833644917       -4.24625934944811        0.27763563011870
C            1.71871424655046       -4.52032274599318        1.05050420908283
C            2.90715273757130       -4.74081838464456        0.09946532619109
C            3.76192834463762       -3.47819782489602        0.04857747955143
C            3.04818851399294       -2.40052155287856       -0.76097703378642
H            1.26448476322915       -1.48856501919334       -2.62066469319326
H            0.10415866200475       -0.40410799238538       -3.36588737906923
H            1.69429351102119        0.20511278203098       -2.87158446580568
H            0.15222160289232        1.79256536395017       -3.11017904125450
H           -1.49319777167505        3.58910388411430       -3.23428132451951
H           -3.33976027725448        4.84393135095942       -2.21285680700330
H           -5.00518952125932        5.09938836719075       -0.41123749223582
H           -5.11026910347694        3.44825229321470        1.41774821913743
H           -3.56060550889616        1.60091700450205        1.50582226933627
H           -1.38193779729403       -1.93561845807136        3.22205221718912
H           -3.80393264807556       -2.20971515186489        3.25768524322673
H           -5.97900402617698       -1.97999644835756        2.14378766585667
H           -7.33481963386982       -1.11620253630660        0.27093067753890
H           -6.26091847153443        0.17105362486355       -1.53916460744273
H           -3.87904490332435        0.55554512457693       -1.53755787323446
H            1.65181514917972       -0.25875575473360        2.79129326454095
H            0.77368999700934       -1.75474454980278        3.10133615252988
H            0.02536120719701       -0.18335236908755        3.44963588834598
H            3.87133006835353        2.89770639457262       -1.99683539672879
H            6.08235212937331        3.96910164457774       -2.19810260458667
H            7.20509199199301        4.87272904460323       -0.20799033430730
H            6.13857021538184        4.66574383978108        2.01456198896495
H            3.92214592252440        3.59163540312727        2.22036537910652
H            1.02645473440310       -3.58880100177972       -1.69985401860527
H           -0.26927796889548       -2.63025622921570       -0.98252485382962
H            0.10824396127322       -5.15381619324503       -0.23133259924830
H           -0.35679325032506       -3.93604930070137        0.96039333687732
H            1.93164972337083       -3.65349235855793        1.67718154945359
H            1.58449604514795       -5.37200661717560        1.71186449106384
H            2.54438147138117       -4.94774617133884       -0.90886993125914
H            3.50076303751578       -5.60004959971508        0.40175965070765
H            4.72904157827129       -3.67518363148361       -0.41428963978160
H            3.94565636797598       -3.11177254419832        1.06007489387331
H            3.03647531061034       -2.68790491797006       -1.81586778103214
H            3.61037852103515       -1.46588927563035       -0.68386912277856
75
 energy: -108.086399564455 gnorm: 0.019449842130 xtb: 6.7.1 (edcfbbe)
C            0.87268728540431       -0.47649061762470       -2.58914512344994
N            0.24372835211195       -0.16605931864507       -1.29959909328242
C           -0.66610713107063        0.93919832638593       -1.31245665580095
C           -0.58152731240146        1.91799294840936       -2.32327088460395
C           -1.50276232556213        2.92024147285899       -2.39789406118111
C           -2.47555843978022        3.08101209305616       -1.38989469614234
C           -3.39598646701302        4.15171160374232       -1.40585643163655
C           -4.33051329818486        4.28762840175055       -0.42005633014764
C           -4.36716107439711        3.36279510768599        0.63637255295538
C           -3.49005933174983        2.31695513752669        0.67996862986954
C           -2.54203223031061        2.12502182269472       -0.35107774171604
C           -1.69153793553424        0.97003539490371       -0.39777120032970
C           -2.12156290866586       -0.16405153271320        0.43156605185500
C           -1.34671252187043       -0.81287367658437        1.36556126691426
C           -1.96915595119980       -1.57181826711660        2.38220602246648
C           -3.32629529218861       -1.71560347522581        2.42100776801549
C           -4.13499858929211       -1.22451958001775        1.37637752705448
C           -5.53221091811085       -1.43315535649152        1.34529177869910
C           -6.29081280190521       -0.94270127431194        0.32155228316484
C           -5.67449198082200       -0.23630206444765       -0.72412554395388
C           -4.32654548648153       -0.01725516629478       -0.72033463638006
C           -3.52134124474732       -0.47586442694216        0.34769256555131
N            0.07756670369321       -0.63887217843748        1.38494483703053
C            0.68105860878709       -0.71759913830701        2.71987602749925
P            1.07429767859871       -0.65813761789719        0.05538339788856
Se           2.92767857487727        0.50306855774845        0.62209228576354
S            2.11938926965086        2.53027465563671        0.27287136592813
C            3.75398826444283        3.25401606125776        0.11353318694285
C            4.35801479399627        3.31968409339520       -1.13076431467785
C            5.61086152987173        3.89859555619687       -1.23657384533495
C            6.24576831711752        4.39574887224006       -0.10978156427627
C            5.64540354609116        4.29171046424735        1.13409724342840
C            4.39277749626962        3.71417221503976        1.25309483705159
N            1.66135237413376       -2.15732939755874       -0.31833790364540
C            0.65549116503185       -3.14356138979395       -0.74817173101703
C            0.43108847667417       -4.24562152772488        0.29262575097933
C            1.71325846127360       -4.54762018343828        1.06255950963952
C            2.91608153058317       -4.76007832198285        0.12785720644797
C            3.75335371955314       -3.48582793582521        0.04641223800975
C            3.03717680083156       -2.41470696144096       -0.76682518445905
H            1.26355331917432       -1.48897443003875       -2.59052423509692
H            0.10260882672290       -0.41400880567032       -3.35669799447324
H            1.68603363690717        0.20828695872798       -2.83878859279671
H            0.17689623455884        1.84586720354194       -3.08519761581396
H           -1.48813930314219        3.61220597877740       -3.22701390628852
H           -3.34031186397580        4.86252834158403       -2.21693834694676
H           -5.03191569912090        5.10869568288817       -0.43266781545190
H           -5.09828251725114        3.47832667360250        1.42158043718140
H           -3.52449343856311        1.63554683995478        1.51443278371201
H           -1.38382873989453       -1.99402510397535        3.18161087491686
H           -3.79684618614891       -2.22393293786790        3.25082010096073
H           -5.98576774095691       -1.99351596403880        2.14937115268558
H           -7.35815254848161       -1.10657816278846        0.29558459751419
H           -6.27253306301917        0.13980748460101       -1.53972008223348
H           -3.87608189155954        0.50725836911386       -1.54700678247313
H            1.66645791318415       -0.25181357598111        2.73038107876448
H            0.78992567449451       -1.74832556916344        3.06053231093184
H            0.04424685103762       -0.17363575840578        3.41693465565817
H            3.85374827470311        2.92476482992710       -1.99963535464474
H            6.08756130894094        3.96643052087096       -2.20201875425169
H            7.21332111175392        4.86444864408119       -0.20133040585354
H            6.14505167509573        4.66299239437972        2.01506511833748
H            3.91242826877608        3.62133131491522        2.21523250296446
H            1.00110505185769       -3.58579599452020       -1.68573693233834
H           -0.28771472303652       -2.62589349795970       -0.95000494713146
H            0.08812215843976       -5.14177077374836       -0.22843085076044
H           -0.35417718960699       -3.94285979029450        0.98720723464449
H            1.92960384989238       -3.70008378584969        1.71793601106765
H            1.55983513010188       -5.41798667047793        1.69971739249605
H            2.56776443572223       -5.01856252666346       -0.87603077797060
H            3.53368786678731       -5.59149116205303        0.47434543772956
H            4.71501817878292       -3.67902773765746       -0.43248933216333
H            3.95808673965718       -3.11409642330393        1.05330140055221
H            3.01469941734357       -2.71842536572366       -1.81877959209764
H            3.60483827311400       -1.48149757673521       -0.70605416245097
75
 energy: -108.090835474531 gnorm: 0.015738639002 xtb: 6.7.1 (edcfbbe)
C            0.85880829933510       -0.46998685443623       -2.58328532873558
N            0.21747333365663       -0.16852578058451       -1.30114610588683
C           -0.66408011766871        0.95849916527345       -1.30338956591481
C           -0.55752003821253        1.95085904529807       -2.29671234745960