      -----------------------------------------------------------      
     |                   =====================                   |     
     |                           x T B                           |     
     |                   =====================                   |     
     |                         S. Grimme                         |     
     |          Mulliken Center for Theoretical Chemistry        |     
     |                    University of Bonn                     |     
      -----------------------------------------------------------      

   * xtb version 6.7.1 (edcfbbe) compiled by 'conda@3ef47c1a292c' on 2024-11-25

   xtb is free software: you can redistribute it and/or modify it under
   the terms of the GNU Lesser General Public License as published by
   the Free Software Foundation, either version 3 of the License, or
   (at your option) any later version.
   
   xtb is distributed in the hope that it will be useful,
   but WITHOUT ANY WARRANTY; without even the implied warranty of
   MERCHANTABILITY or FITNESS FOR A PARTICULAR PURPOSE.  See the
   GNU Lesser General Public License for more details.
   
   Cite this work as:
   * C. Bannwarth, E. Caldeweyher, S. Ehlert, A. Hansen, P. Pracht,
     J. Seibert, S. Spicher, S. Grimme, WIREs Comput. Mol. Sci., 2020, 11,
     e01493. DOI: 10.1002/wcms.1493
   
   for GFN2-xTB:
   * C. Bannwarth, S. Ehlert and S. Grimme., J. Chem. Theory Comput., 2019,
     15, 1652-1671. DOI: 10.1021/acs.jctc.8b01176
   for GFN1-xTB:
   * S. Grimme, C. Bannwarth, P. Shushkov, J. Chem. Theory Comput., 2017,
     13, 1989-2009. DOI: 10.1021/acs.jctc.7b00118
   for GFN0-xTB:
   * P. Pracht, E. Caldeweyher, S. Ehlert, S. Grimme, ChemRxiv, 2019, preprint.
     DOI: 10.26434/chemrxiv.8326202.v1
   for GFN-FF:
   * S. Spicher and S. Grimme, Angew. Chem. Int. Ed., 2020, 59, 15665-15673.
     DOI: 10.1002/anie.202004239
   
   for ALPB and GBSA implicit solvation:
   * S. Ehlert, M. Stahn, S. Spicher, S. Grimme, J. Chem. Theory Comput.,
     2021, 17, 4250-4261. DOI: 10.1021/acs.jctc.1c00471
   
   for ddCOSMO and CPCM-X implicit solvation:
   * M. Stahn, S. Ehlert, S. Grimme, J. Phys. Chem. A,
     2023, XX, XXXX-XXXX. DOI: 10.1021/acs.jpca.3c04382
   
   for DFT-D4:
   * E. Caldeweyher, C. Bannwarth and S. Grimme, J. Chem. Phys., 2017,
     147, 034112. DOI: 10.1063/1.4993215
   * E. Caldeweyher, S. Ehlert, A. Hansen, H. Neugebauer, S. Spicher,
     C. Bannwarth and S. Grimme, J. Chem. Phys., 2019, 150, 154122.
     DOI: 10.1063/1.5090222
   * E. Caldeweyher, J.-M. Mewes, S. Ehlert and S. Grimme, Phys. Chem. Chem. Phys.
     2020, 22, 8499-8512. DOI: 10.1039/D0CP00502A
   
   for sTDA-xTB:
   * S. Grimme and C. Bannwarth, J. Chem. Phys., 2016, 145, 054103.
     DOI: 10.1063/1.4959605
   
   in the mass-spec context:
   * V. Asgeirsson, C. Bauer and S. Grimme, Chem. Sci., 2017, 8, 4879.
     DOI: 10.1039/c7sc00601b
   * J. Koopman and S. Grimme, ACS Omega 2019, 4, 12, 15120-15133.
     DOI: 10.1021/acsomega.9b02011
   
   for metadynamics refer to:
   * S. Grimme, J. Chem. Theory Comput., 2019, 155, 2847-2862
     DOI: 10.1021/acs.jctc.9b00143
   
   for SPH calculations refer to:
   * S. Spicher and S. Grimme, J. Chem. Theory Comput., 2021, 17, 1701-1714
     DOI: 10.1021/acs.jctc.0c01306
   
   for ONIOM refer to:
   * C. Plett, A. Katbashev, S. Ehlert, S. Grimme, M. Bursch,
     Phys. Chem. Chem. Phys., 2023, 25, 17860-17868. DOI: 10.1039/D3CP02178E
   
   for DIPRO refer to:
   * J. Kohn, N. Gildemeister, S. Grimme, D. Fazzi, A. Hansen,
     J. Chem. Phys., 2023, just accepted.
   
   for PTB refer to:
   * S. Grimme, M. Mueller, A. Hansen, J. Chem. Phys., 2023, 158, 124111.
     DOI: 10.1063/5.0137838
   
   with help from (in alphabetical order)
   P. Atkinson, C. Bannwarth, F. Bohle, G. Brandenburg, E. Caldeweyher
   M. Checinski, S. Dohm, S. Ehlert, S. Ehrlich, I. Gerasimov, C. Hölzer
   A. Katbashev, J. Kohn, J. Koopman, C. Lavigne, S. Lehtola, F. März, M. Müller,
   F. Musil, H. Neugebauer, J. Pisarek, C. Plett, P. Pracht, F. Pultar,
   J. Seibert, P. Shushkov, S. Spicher, M. Stahn, M. Steiner, T. Strunk,
   J. Stückrath, T. Rose, and J. Unsleber
   
 * started run on 2024/12/16 at 19:06:30.464     
   ID    Z sym.   atoms
    1    6 C      1, 3-22, 24, 28-37, 39-43
    2    7 N      2, 23, 38
    3   15 P      25
    4   16 S      26, 27
    5    1 H      44-80

           -------------------------------------------------
          |                Calculation Setup                |
           -------------------------------------------------

          program call               : xtb --gfn2 --opt extreme -P 8 --charge 1 molecule.xyz
          hostname                   : node20
          coordinate file            : molecule.xyz
          omp threads                :                     8


           -------------------------------------------------
          |                 G F N 2 - x T B                 |
           -------------------------------------------------

        Reference                      10.1021/acs.jctc.8b01176
      * Hamiltonian:
        H0-scaling (s, p, d)           1.850000    2.230000    2.230000
        zeta-weighting                 0.500000
      * Dispersion:
        s8                             2.700000
        a1                             0.520000
        a2                             5.000000
        s9                             5.000000
      * Repulsion:
        kExp                           1.500000    1.000000
        rExp                           1.000000
      * Coulomb:
        alpha                          2.000000
        third order                    shell-resolved
        anisotropic                    true
        a3                             3.000000
        a5                             4.000000
        cn-shift                       1.200000
        cn-exp                         4.000000
        max-rad                        5.000000


          ...................................................
          :                      SETUP                      :
          :.................................................:
          :  # basis functions                 227          :
          :  # atomic orbitals                 224          :
          :  # shells                          126          :
          :  # electrons                       216          :
          :  max. iterations                   250          :
          :  Hamiltonian                  GFN2-xTB          :
          :  restarted?                      false          :
          :  GBSA solvation                  false          :
          :  PC potential                    false          :
          :  electronic temp.          300.0000000     K    :
          :  accuracy                    1.0000000          :
          :  -> integral cutoff          0.2500000E+02      :
          :  -> integral neglect         0.1000000E-07      :
          :  -> SCF convergence          0.1000000E-05 Eh   :
          :  -> wf. convergence          0.1000000E-03 e    :
          :  Broyden damping             0.4000000          :
          :  net charge                          1          :
          :  unpaired electrons                  0          :
          ...................................................

 iter      E             dE          RMSdq      gap      omega  full diag
   1   -117.2473689 -0.117247E+03  0.444E+00    1.71       0.0  T
   2   -117.3992146 -0.151846E+00  0.272E+00    2.01       1.0  T
   3   -117.3739193  0.252953E-01  0.134E+00    1.96       1.0  T
   4   -117.4005143 -0.265950E-01  0.660E-01    1.65       1.0  T
   5   -117.4266335 -0.261192E-01  0.276E-01    1.78       1.0  T
   6   -117.4289337 -0.230021E-02  0.141E-01    1.76       1.0  T
   7   -117.4303852 -0.145148E-02  0.492E-02    1.76       1.0  T
   8   -117.4304367 -0.514781E-04  0.247E-02    1.77       1.0  T
   9   -117.4304430 -0.638409E-05  0.127E-02    1.77       1.0  T
  10   -117.4304453 -0.222610E-05  0.755E-03    1.77       1.5  T
  11   -117.4304466 -0.128494E-05  0.387E-03    1.77       2.9  T
  12   -117.4304469 -0.324841E-06  0.229E-03    1.76       4.9  T
  13   -117.4304469 -0.341611E-07  0.124E-03    1.77       9.0  T
  14   -117.4304470 -0.361511E-07  0.549E-04    1.77      20.4  T
  15   -117.4304470 -0.156399E-08  0.309E-04    1.77      36.2  T

   *** convergence criteria satisfied after 15 iterations ***

         #    Occupation            Energy/Eh            Energy/eV
      -------------------------------------------------------------
         1        2.0000           -0.8586410             -23.3648
       ...           ...                  ...                  ...
       102        2.0000           -0.4951814             -13.4746
       103        2.0000           -0.4942422             -13.4490
       104        2.0000           -0.4841353             -13.1740
       105        2.0000           -0.4822663             -13.1231
       106        2.0000           -0.4725590             -12.8590
       107        2.0000           -0.4670801             -12.7099
       108        2.0000           -0.4537442             -12.3470 (HOMO)
       109                         -0.3888801             -10.5820 (LUMO)
       110                         -0.3701394             -10.0720
       111                         -0.3625905              -9.8666
       112                         -0.3563281              -9.6962
       113                         -0.3483695              -9.4796
       ...                                ...                  ...
       224                          1.0884593              29.6185
      -------------------------------------------------------------
                  HL-Gap            0.0648641 Eh            1.7650 eV
             Fermi-level           -0.4213121 Eh          -11.4645 eV

 SCC (total)                   0 d,  0 h,  0 min,  2.550 sec
 SCC setup                      ...        0 min,  0.000 sec (  0.014%)
 Dispersion                     ...        0 min,  0.002 sec (  0.065%)
 classical contributions        ...        0 min,  0.000 sec (  0.005%)
 integral evaluation            ...        0 min,  0.013 sec (  0.505%)
 iterations                     ...        0 min,  2.416 sec ( 94.726%)
 molecular gradient             ...        0 min,  0.115 sec (  4.503%)
 printout                       ...        0 min,  0.005 sec (  0.182%)

         :::::::::::::::::::::::::::::::::::::::::::::::::::::
         ::                     SUMMARY                     ::
         :::::::::::::::::::::::::::::::::::::::::::::::::::::
         :: total energy            -115.597800439601 Eh    ::
         :: gradient norm              0.147990901030 Eh/a0 ::
         :: HOMO-LUMO gap              1.765041078196 eV    ::
         ::.................................................::
         :: SCC energy              -117.424419536843 Eh    ::
         :: -> isotropic ES            0.076928139918 Eh    ::
         :: -> anisotropic ES          0.002069573295 Eh    ::
         :: -> anisotropic XC          0.072748700145 Eh    ::
         :: -> dispersion             -0.125585665661 Eh    ::
         :: repulsion energy           1.826619097242 Eh    ::
         :: add. restraining           0.000000000000 Eh    ::
         :: total charge               1.000000000000 e     ::
         :::::::::::::::::::::::::::::::::::::::::::::::::::::

      ----------------------------------------------------------- 
     |                   =====================                   |
     |                        A N C O P T                        |
     |                   =====================                   |
     |               Approximate Normal Coordinate               |
     |                Rational Function Optimizer                |
      ----------------------------------------------------------- 
      ----------------------------------------------------------- 
     |                   =====================                   |
     |                        A N C O P T                        |
     |                   =====================                   |
     |               Approximate Normal Coordinate               |
     |                Rational Function Optimizer                |
      ----------------------------------------------------------- 

          ...................................................
          :                      SETUP                      :
          :.................................................:
          :   optimization level           extreme          :
          :   max. optcycles                  1600          :
          :   ANC micro-cycles                  20          :
          :   degrees of freedom               234          :
          :.................................................:
          :   RF solver                   davidson          :
          :   write xtbopt.log                true          :
          :   linear?                        false          :
          :   energy convergence         0.5000000E-07 Eh   :
          :   grad. convergence          0.5000000E-04 Eh/α :
          :   maxmium RF displ.          1.0000000          :
          :   Hlow (freq-cutoff)         0.1000000E-01      :
          :   Hmax (freq-cutoff)         5.0000000          :
          :   S6 in model hess.         20.0000000          :
          ...................................................

generating ANC from exact Hessian ...
Using Lindh-Hessian (1995)
 Shifting diagonal of input Hessian by    9.8950328848852534E-003
 Lowest  eigenvalues of input Hessian
    0.000000    0.000000    0.000000    0.000000    0.000000    0.000000
    0.010000    0.010041    0.010175    0.010247    0.010267    0.010316
    0.010527    0.010725    0.010965    0.011198    0.011326    0.011573
 Highest eigenvalues
    1.988283    2.004506    2.025505    2.067056    2.069699    2.083954


........................................................................
.............................. CYCLE    1 ..............................
........................................................................

 iter      E             dE          RMSdq      gap      omega  full diag
   1   -117.4304470 -0.117430E+03  0.135E-04    1.77       0.0  T
   2   -117.4304470 -0.789129E-10  0.994E-05    1.77     112.5  T
   3   -117.4304470 -0.323055E-09  0.614E-05    1.77     182.2  T
     SCC iter.                  ...        0 min,  0.360 sec
     gradient                   ...        0 min,  0.115 sec
 * total energy  :  -115.5978004 Eh     change       -0.3296279E-08 Eh
   gradient norm :     0.1479911 Eh/α   predicted     0.0000000E+00 (-100.00%)
   displ. norm   :     0.3840719 α      lambda       -0.2848862E-01
   maximum displ.:     0.0850436 α      in ANC's #15, #74, #31, ...

........................................................................
.............................. CYCLE    2 ..............................
........................................................................

 iter      E             dE          RMSdq      gap      omega  full diag
   1   -117.5025077 -0.117503E+03  0.260E-01    1.88       0.0  T
   2   -117.5026453 -0.137579E-03  0.139E-01    1.94       1.0  T
   3   -117.5025433  0.101908E-03  0.474E-02    1.97       1.0  T
   4   -117.5026640 -0.120604E-03  0.236E-02    1.98       1.0  T
   5   -117.5026827 -0.187877E-04  0.123E-02    1.97       1.0  T
   6   -117.5026893 -0.654713E-05  0.522E-03    1.97       2.1  T
   7   -117.5026898 -0.513013E-06  0.349E-03    1.97       3.2  T
   8   -117.5026900 -0.228281E-06  0.200E-03    1.97       5.6  T
   9   -117.5026901 -0.325464E-07  0.105E-03    1.97      10.6  T
  10   -117.5026901 -0.114461E-07  0.573E-04    1.97      19.5  T
  11   -117.5026901 -0.113368E-07  0.198E-04    1.97      56.3  T
     SCC iter.                  ...        0 min,  1.840 sec
     gradient                   ...        0 min,  0.118 sec
 * total energy  :  -115.6179276 Eh     change       -0.2012713E-01 Eh
   gradient norm :     0.0630675 Eh/α   predicted    -0.1637317E-01 ( -18.65%)
   displ. norm   :     0.4000864 α      lambda       -0.1028673E-01
   maximum displ.:     0.1184707 α      in ANC's #16, #15, #52, ...

........................................................................
.............................. CYCLE    3 ..............................
........................................................................

 iter      E             dE          RMSdq      gap      omega  full diag
   1   -117.5468078 -0.117547E+03  0.189E-01    2.11       0.0  T
   2   -117.5468524 -0.445575E-04  0.102E-01    2.14       1.0  T
   3   -117.5468121  0.402491E-04  0.288E-02    2.16       1.0  T
   4   -117.5468604 -0.482447E-04  0.129E-02    2.16       1.0  T
   5   -117.5468662 -0.578582E-05  0.667E-03    2.16       1.7  T
   6   -117.5468680 -0.180132E-05  0.271E-03    2.16       4.1  T
   7   -117.5468681 -0.962786E-07  0.170E-03    2.16       6.6  T
   8   -117.5468681 -0.713369E-07  0.859E-04    2.16      13.0  T
   9   -117.5468682 -0.638967E-08  0.542E-04    2.16      20.6  T
     SCC iter.                  ...        0 min,  1.369 sec
     gradient                   ...        0 min,  0.118 sec
 * total energy  :  -115.6241407 Eh     change       -0.6213148E-02 Eh
   gradient norm :     0.0130670 Eh/α   predicted    -0.5966661E-02 (  -3.97%)
   displ. norm   :     0.3648914 α      lambda       -0.2224088E-02
   maximum displ.:     0.1490245 α      in ANC's #16, #9, #15, ...

........................................................................
.............................. CYCLE    4 ..............................
........................................................................

 iter      E             dE          RMSdq      gap      omega  full diag
   1   -117.5502474 -0.117550E+03  0.951E-02    2.20       0.0  T
   2   -117.5502647 -0.173955E-04  0.486E-02    2.21       1.0  T
   3   -117.5502591  0.560083E-05  0.152E-02    2.22       1.0  T
   4   -117.5502645 -0.530509E-05  0.851E-03    2.22       1.3  T
   5   -117.5502681 -0.363464E-05  0.293E-03    2.22       3.8  T
   6   -117.5502684 -0.302034E-06  0.155E-03    2.22       7.2  T
   7   -117.5502685 -0.111815E-06  0.541E-04    2.22      20.7  T
   8   -117.5502685 -0.915148E-08  0.301E-04    2.22      37.2  T
     SCC iter.                  ...        0 min,  1.057 sec
     gradient                   ...        0 min,  0.116 sec
 * total energy  :  -115.6257818 Eh     change       -0.1641098E-02 Eh
   gradient norm :     0.0114771 Eh/α   predicted    -0.1260168E-02 ( -23.21%)
   displ. norm   :     0.4767789 α      lambda       -0.1820190E-02
   maximum displ.:     0.2177352 α      in ANC's #16, #9, #14, ...

........................................................................
.............................. CYCLE    5 ..............................
........................................................................

 iter      E             dE          RMSdq      gap      omega  full diag
   1   -117.5520132 -0.117552E+03  0.816E-02    2.25       0.0  T
   2   -117.5520249 -0.116322E-04  0.452E-02    2.24       1.0  T
   3   -117.5520200  0.485990E-05  0.160E-02    2.24       1.0  T
   4   -117.5520271 -0.711831E-05  0.519E-03    2.24       2.2  T
   5   -117.5520274 -0.314788E-06  0.330E-03    2.24       3.4  T
   6   -117.5520278 -0.372764E-06  0.136E-03    2.24       8.2  T
   7   -117.5520279 -0.410360E-07  0.778E-04    2.24      14.4  T
   8   -117.5520279 -0.130556E-07  0.390E-04    2.24      28.6  T
     SCC iter.                  ...        0 min,  1.115 sec
     gradient                   ...        0 min,  0.117 sec
 * total energy  :  -115.6269834 Eh     change       -0.1201557E-02 Eh
   gradient norm :     0.0096585 Eh/α   predicted    -0.1116980E-02 (  -7.04%)
   displ. norm   :     0.3964087 α      lambda       -0.9427487E-03
   maximum displ.:     0.1908219 α      in ANC's #9, #16, #14, ...

........................................................................
.............................. CYCLE    6 ..............................
........................................................................

 iter      E             dE          RMSdq      gap      omega  full diag
   1   -117.5519604 -0.117552E+03  0.865E-02    2.24       0.0  T
   2   -117.5519744 -0.139974E-04  0.392E-02    2.25       1.0  T
   3   -117.5519748 -0.478436E-06  0.111E-02    2.25       1.0  T
   4   -117.5519749 -0.225771E-07  0.655E-03    2.25       1.7  T
   5   -117.5519762 -0.137006E-05  0.210E-03    2.25       5.3  T
   6   -117.5519763 -0.101555E-06  0.962E-04    2.25      11.6  T
   7   -117.5519764 -0.459848E-07  0.461E-04    2.25      24.3  T
     SCC iter.                  ...        0 min,  1.101 sec
     gradient                   ...        0 min,  0.119 sec
 * total energy  :  -115.6275678 Eh     change       -0.5844425E-03 Eh
   gradient norm :     0.0065405 Eh/α   predicted    -0.5454649E-03 (  -6.67%)
   displ. norm   :     0.2926261 α      lambda       -0.4836088E-03
   maximum displ.:     0.1344131 α      in ANC's #9, #14, #16, ...

........................................................................
.............................. CYCLE    7 ..............................
........................................................................

 iter      E             dE          RMSdq      gap      omega  full diag
   1   -117.5543738 -0.117554E+03  0.509E-02    2.25       0.0  T
   2   -117.5543776 -0.380114E-05  0.279E-02    2.25       1.0  T
   3   -117.5543753  0.231700E-05  0.830E-03    2.25       1.3  T
   4   -117.5543776 -0.233030E-05  0.392E-03    2.25       2.9  T
   5   -117.5543784 -0.791039E-06  0.160E-03    2.25       7.0  T
   6   -117.5543784 -0.653278E-07  0.924E-04    2.25      12.1  T
   7   -117.5543785 -0.279394E-07  0.472E-04    2.25      23.7  T
     SCC iter.                  ...        0 min,  0.891 sec
     gradient                   ...        0 min,  0.121 sec
 * total energy  :  -115.6278991 Eh     change       -0.3312866E-03 Eh
   gradient norm :     0.0056706 Eh/α   predicted    -0.2625103E-03 ( -20.76%)
   displ. norm   :     0.2417570 α      lambda       -0.2821393E-03
   maximum displ.:     0.0927309 α      in ANC's #9, #14, #2, ...

........................................................................
.............................. CYCLE    8 ..............................
........................................................................

 iter      E             dE          RMSdq      gap      omega  full diag
   1   -117.5570952 -0.117557E+03  0.411E-02    2.25       0.0  T
   2   -117.5570967 -0.151855E-05  0.230E-02    2.25       1.0  T
   3   -117.5570950  0.175481E-05  0.620E-03    2.25       1.8  T
   4   -117.5570971 -0.212914E-05  0.224E-03    2.25       5.0  T
   5   -117.5570973 -0.160773E-06  0.904E-04    2.25      12.4  T
   6   -117.5570973 -0.267041E-07  0.362E-04    2.25      30.9  T
     SCC iter.                  ...        0 min,  0.715 sec
     gradient                   ...        0 min,  0.115 sec
 * total energy  :  -115.6280878 Eh     change       -0.1886988E-03 Eh
   gradient norm :     0.0039552 Eh/α   predicted    -0.1493152E-03 ( -20.87%)
   displ. norm   :     0.1830593 α      lambda       -0.1373519E-03
   maximum displ.:     0.0757093 α      in ANC's #2, #7, #4, ...

........................................................................
.............................. CYCLE    9 ..............................
........................................................................

 iter      E             dE          RMSdq      gap      omega  full diag
   1   -117.5575145 -0.117558E+03  0.324E-02    2.25       0.0  T
   2   -117.5575161 -0.155502E-05  0.166E-02    2.25       1.0  T
   3   -117.5575154  0.695293E-06  0.556E-03    2.25       2.0  T
   4   -117.5575163 -0.880397E-06  0.255E-03    2.25       4.4  T
   5   -117.5575164 -0.167747E-06  0.108E-03    2.25      10.3  T
   6   -117.5575165 -0.711181E-07  0.403E-04    2.25      27.7  T
   7   -117.5575165 -0.987852E-08  0.174E-04    2.25      64.2  T
     SCC iter.                  ...        0 min,  1.039 sec
     gradient                   ...        0 min,  0.116 sec
 * total energy  :  -115.6281835 Eh     change       -0.9568195E-04 Eh
   gradient norm :     0.0026181 Eh/α   predicted    -0.7098015E-04 ( -25.82%)
   displ. norm   :     0.1773131 α      lambda       -0.1021847E-03
   maximum displ.:     0.0849178 α      in ANC's #2, #4, #7, ...

........................................................................
.............................. CYCLE   10 ..............................
........................................................................

 iter      E             dE          RMSdq      gap      omega  full diag
   1   -117.5576734 -0.117558E+03  0.237E-02    2.25       0.0  T
   2   -117.5576739 -0.531011E-06  0.132E-02    2.25       1.0  T
   3   -117.5576736  0.370764E-06  0.355E-03    2.25       3.2  T
   4   -117.5576740 -0.383029E-06  0.174E-03    2.25       6.4  T
   5   -117.5576741 -0.106006E-06  0.838E-04    2.25      13.3  T
   6   -117.5576741 -0.365057E-07  0.384E-04    2.25      29.1  T
     SCC iter.                  ...        0 min,  0.733 sec
     gradient                   ...        0 min,  0.119 sec
 * total energy  :  -115.6282625 Eh     change       -0.7897184E-04 Eh
   gradient norm :     0.0023403 Eh/α   predicted    -0.5270611E-04 ( -33.26%)
   displ. norm   :     0.2306622 α      lambda       -0.1191139E-03
   maximum displ.:     0.1149170 α      in ANC's #2, #4, #8, ...

........................................................................
.............................. CYCLE   11 ..............................
........................................................................

 iter      E             dE          RMSdq      gap      omega  full diag
   1   -117.5569786 -0.117557E+03  0.315E-02    2.25       0.0  T
   2   -117.5569792 -0.611327E-06  0.174E-02    2.25       1.0  T
   3   -117.5569788  0.346381E-06  0.382E-03    2.25       2.9  T
   4   -117.5569791 -0.260445E-06  0.210E-03    2.26       5.3  T
   5   -117.5569793 -0.212742E-06  0.797E-04    2.26      14.0  T
   6   -117.5569793 -0.449451E-07  0.284E-04    2.26      39.4  T
     SCC iter.                  ...        0 min,  0.783 sec
     gradient                   ...        0 min,  0.115 sec
 * total energy  :  -115.6283601 Eh     change       -0.9766113E-04 Eh
   gradient norm :     0.0034873 Eh/α   predicted    -0.6272640E-04 ( -35.77%)
   displ. norm   :     0.3260706 α      lambda       -0.1546932E-03
   maximum displ.:     0.1650921 α      in ANC's #2, #4, #8, ...

........................................................................
.............................. CYCLE   12 ..............................
........................................................................

 iter      E             dE          RMSdq      gap      omega  full diag
   1   -117.5561321 -0.117556E+03  0.442E-02    2.26       0.0  T
   2   -117.5561329 -0.714132E-06  0.250E-02    2.26       1.0  T
   3   -117.5561326  0.255842E-06  0.384E-03    2.26       2.9  T
   4   -117.5561328 -0.169971E-06  0.224E-03    2.26       5.0  T
   5   -117.5561330 -0.273302E-06  0.655E-04    2.26      17.1  T
   6   -117.5561331 -0.296323E-07  0.281E-04    2.26      39.8  T
     SCC iter.                  ...        0 min,  0.694 sec
     gradient                   ...        0 min,  0.116 sec
 * total energy  :  -115.6284879 Eh     change       -0.1278161E-03 Eh
   gradient norm :     0.0044169 Eh/α   predicted    -0.8557299E-04 ( -33.05%)
   displ. norm   :     0.4020495 α      lambda       -0.1720292E-03
   maximum displ.:     0.2080682 α      in ANC's #2, #4, #8, ...

........................................................................
.............................. CYCLE   13 ..............................
........................................................................

 iter      E             dE          RMSdq      gap      omega  full diag
   1   -117.5555056 -0.117556E+03  0.543E-02    2.26       0.0  T
   2   -117.5555066 -0.916036E-06  0.310E-02    2.27       1.0  T
   3   -117.5555062  0.407120E-06  0.440E-03    2.27       2.5  T
   4   -117.5555066 -0.449382E-06  0.237E-03    2.27       4.7  T
   5   -117.5555068 -0.249216E-06  0.666E-04    2.27      16.8  T
   6   -117.5555069 -0.291193E-07  0.313E-04    2.27      35.7  T
     SCC iter.                  ...        0 min,  0.747 sec
     gradient                   ...        0 min,  0.116 sec
 * total energy  :  -115.6286286 Eh     change       -0.1406550E-03 Eh
   gradient norm :     0.0041044 Eh/α   predicted    -0.9991942E-04 ( -28.96%)
   displ. norm   :     0.4214271 α      lambda       -0.1605679E-03
   maximum displ.:     0.2253198 α      in ANC's #2, #4, #8, ...

........................................................................
.............................. CYCLE   14 ..............................
........................................................................

 iter      E             dE          RMSdq      gap      omega  full diag
   1   -117.5558980 -0.117556E+03  0.561E-02    2.27       0.0  T
   2   -117.5558991 -0.107089E-05  0.321E-02    2.27       1.0  T
   3   -117.5558987  0.451581E-06  0.467E-03    2.27       2.4  T
   4   -117.5558992 -0.533873E-06  0.248E-03    2.27       4.5  T
   5   -117.5558994 -0.251298E-06  0.762E-04    2.27      14.7  T
   6   -117.5558995 -0.331743E-07  0.395E-04    2.27      28.3  T
     SCC iter.                  ...        0 min,  0.658 sec
     gradient                   ...        0 min,  0.117 sec
 * total energy  :  -115.6287573 Eh     change       -0.1286643E-03 Eh
   gradient norm :     0.0030103 Eh/α   predicted    -0.9454632E-04 ( -26.52%)
   displ. norm   :     0.3901599 α      lambda       -0.1285776E-03
   maximum displ.:     0.2175144 α      in ANC's #2, #4, #8, ...

........................................................................
.............................. CYCLE   15 ..............................
........................................................................

 iter      E             dE          RMSdq      gap      omega  full diag
   1   -117.5571595 -0.117557E+03  0.521E-02    2.28       0.0  T
   2   -117.5571606 -0.109612E-05  0.297E-02    2.28       1.0  T
   3   -117.5571601  0.513395E-06  0.475E-03    2.28       2.4  T
   4   -117.5571606 -0.529382E-06  0.260E-03    2.28       4.3  T
   5   -117.5571609 -0.289497E-06  0.881E-04    2.28      12.7  T
   6   -117.5571609 -0.460436E-07  0.437E-04    2.28      25.6  T
     SCC iter.                  ...        0 min,  0.685 sec
     gradient                   ...        0 min,  0.116 sec
 * total energy  :  -115.6288585 Eh     change       -0.1012748E-03 Eh
   gradient norm :     0.0022999 Eh/α   predicted    -0.7407968E-04 ( -26.85%)
   displ. norm   :     0.3281329 α      lambda       -0.9160874E-04
   maximum displ.:     0.1918441 α      in ANC's #2, #4, #8, ...

........................................................................
.............................. CYCLE   16 ..............................
........................................................................

 iter      E             dE          RMSdq      gap      omega  full diag
   1   -117.5585029 -0.117559E+03  0.457E-02    2.29       0.0  T
   2   -117.5585038 -0.881808E-06  0.259E-02    2.29       1.0  T
   3   -117.5585033  0.482096E-06  0.442E-03    2.29       2.5  T
   4   -117.5585037 -0.370084E-06  0.259E-03    2.29       4.3  T
   5   -117.5585040 -0.349813E-06  0.803E-04    2.29      13.9  T
   6   -117.5585041 -0.436951E-07  0.366E-04    2.29      30.6  T
     SCC iter.                  ...        0 min,  0.768 sec
     gradient                   ...        0 min,  0.116 sec
 * total energy  :  -115.6289308 Eh     change       -0.7224048E-04 Eh
   gradient norm :     0.0022196 Eh/α   predicted    -0.5073992E-04 ( -29.76%)
   displ. norm   :     0.2549999 α      lambda       -0.6352948E-04
   maximum displ.:     0.1571614 α      in ANC's #2, #4, #8, ...

........................................................................
.............................. CYCLE   17 ..............................
........................................................................

 iter      E             dE          RMSdq      gap      omega  full diag
   1   -117.5593299 -0.117559E+03  0.385E-02    2.30       0.0  T
   2   -117.5593305 -0.583662E-06  0.217E-02    2.30       1.0  T
   3   -117.5593301  0.438870E-06  0.387E-03    2.30       2.9  T
   4   -117.5593304 -0.301145E-06  0.230E-03    2.30       4.9  T
   5   -117.5593307 -0.304632E-06  0.657E-04    2.30      17.0  T
   6   -117.5593307 -0.324991E-07  0.258E-04    2.30      43.3  T
     SCC iter.                  ...        0 min,  0.860 sec
     gradient                   ...        0 min,  0.115 sec
 * total energy  :  -115.6289818 Eh     change       -0.5098634E-04 Eh
   gradient norm :     0.0019406 Eh/α   predicted    -0.3383158E-04 ( -33.65%)
   displ. norm   :     0.2827971 α      lambda       -0.4678022E-04
   maximum displ.:     0.1847045 α      in ANC's #2, #4, #1, ...

........................................................................
.............................. CYCLE   18 ..............................
........................................................................

 iter      E             dE          RMSdq      gap      omega  full diag
   1   -117.5596366 -0.117560E+03  0.467E-02    2.31       0.0  T
   2   -117.5596374 -0.756201E-06  0.266E-02    2.31       1.0  T
   3   -117.5596365  0.857082E-06  0.478E-03    2.31       2.3  T
   4   -117.5596372 -0.740116E-06  0.257E-03    2.31       4.3  T
   5   -117.5596376 -0.353272E-06  0.823E-04    2.31      13.6  T
   6   -117.5596377 -0.521263E-07  0.262E-04    2.31      42.7  T
     SCC iter.                  ...        0 min,  0.922 sec
     gradient                   ...        0 min,  0.115 sec
 * total energy  :  -115.6290334 Eh     change       -0.5169034E-04 Eh
   gradient norm :     0.0015707 Eh/α   predicted    -0.2422471E-04 ( -53.13%)
   displ. norm   :     0.1618098 α      lambda       -0.2863904E-04
   maximum displ.:     0.1119935 α      in ANC's #2, #4, #6, ...

........................................................................
.............................. CYCLE   19 ..............................
........................................................................

 iter      E             dE          RMSdq      gap      omega  full diag
   1   -117.5592050 -0.117559E+03  0.270E-02    2.31       0.0  T
   2   -117.5592052 -0.202493E-06  0.157E-02    2.31       1.0  T
   3   -117.5592048  0.417385E-06  0.273E-03    2.31       4.1  T
   4   -117.5592052 -0.454791E-06  0.108E-03    2.31      10.3  T
   5   -117.5592053 -0.425131E-07  0.460E-04    2.31      24.3  T
   6   -117.5592053 -0.135805E-07  0.152E-04    2.31      73.4  T
     SCC iter.                  ...        0 min,  0.719 sec
     gradient                   ...        0 min,  0.115 sec
 * total energy  :  -115.6290708 Eh     change       -0.3734772E-04 Eh
   gradient norm :     0.0013659 Eh/α   predicted    -0.1448780E-04 ( -61.21%)
   displ. norm   :     0.2046253 α      lambda       -0.4250165E-04
   maximum displ.:     0.1293303 α      in ANC's #2, #6, #12, ...

........................................................................
.............................. CYCLE   20 ..............................
........................................................................

 iter      E             dE          RMSdq      gap      omega  full diag
   1   -117.5589785 -0.117559E+03  0.357E-02    2.31       0.0  T
   2   -117.5589788 -0.288030E-06  0.208E-02    2.31       1.0  T
   3   -117.5589780  0.817411E-06  0.357E-03    2.31       3.1  T
   4   -117.5589789 -0.893516E-06  0.132E-03    2.31       8.5  T
   5   -117.5589789 -0.590797E-07  0.559E-04    2.31      20.0  T
   6   -117.5589789 -0.214152E-07  0.186E-04    2.31      60.0  T
     SCC iter.                  ...        0 min,  0.704 sec
     gradient                   ...        0 min,  0.115 sec
 * total energy  :  -115.6291244 Eh     change       -0.5361941E-04 Eh
   gradient norm :     0.0014575 Eh/α   predicted    -0.2164738E-04 ( -59.63%)
   displ. norm   :     0.2820085 α      lambda       -0.4954721E-04
   maximum displ.:     0.1751805 α      in ANC's #2, #6, #12, ...
 * RMSD in coord.:     0.4703215 α      energy gain  -0.3132397E-01 Eh

generating ANC from exact Hessian ...
Using Lindh-Hessian (1995)
 Shifting diagonal of input Hessian by    9.9148456417636859E-003
 Lowest  eigenvalues of input Hessian
    0.000000    0.000000    0.000000    0.000000    0.000000    0.000000
    0.010000    0.010074    0.010174    0.010252    0.010283    0.010389
    0.010644    0.010661    0.010847    0.011151    0.011265    0.011720
 Highest eigenvalues
    2.025079    2.029658    2.072665    2.113533    2.116433    2.124699


........................................................................
.............................. CYCLE   21 ..............................
........................................................................

 iter      E             dE          RMSdq      gap      omega  full diag
   1   -117.5575681 -0.117558E+03  0.477E-02    2.31       0.0  T
   2   -117.5575686 -0.504227E-06  0.276E-02    2.31       1.0  T
   3   -117.5575670  0.160192E-05  0.498E-03    2.31       2.2  T
   4   -117.5575686 -0.169239E-05  0.197E-03    2.31       5.7  T
   5   -117.5575688 -0.158451E-06  0.754E-04    2.31      14.8  T
   6   -117.5575689 -0.434902E-07  0.228E-04    2.31      49.1  T
     SCC iter.                  ...        0 min,  0.947 sec
     gradient                   ...        0 min,  0.117 sec
 * total energy  :  -115.6291821 Eh     change       -0.5771961E-04 Eh
   gradient norm :     0.0016475 Eh/α   predicted     0.0000000E+00 (-100.00%)
   displ. norm   :     0.0461147 α      lambda       -0.1427412E-04
   maximum displ.:     0.0311011 α      in ANC's #3, #2, #10, ...

........................................................................
.............................. CYCLE   22 ..............................
........................................................................

 iter      E             dE          RMSdq      gap      omega  full diag
   1   -117.5590573 -0.117559E+03  0.781E-03    2.31       0.0  T
   2   -117.5590574 -0.872792E-07  0.452E-03    2.31       2.5  T
   3   -117.5590573  0.324692E-07  0.111E-03    2.31      10.0  T
   4   -117.5590574 -0.368813E-07  0.442E-04    2.31      25.3  T
   5   -117.5590574 -0.740251E-08  0.223E-04    2.31      50.1  T
     SCC iter.                  ...        0 min,  0.545 sec
     gradient                   ...        0 min,  0.116 sec
 * total energy  :  -115.6291999 Eh     change       -0.1780703E-04 Eh
   gradient norm :     0.0006418 Eh/α   predicted    -0.7394099E-05 ( -58.48%)
   displ. norm   :     0.1124478 α      lambda       -0.2430745E-04
   maximum displ.:     0.0700882 α      in ANC's #3, #2, #17, ...

........................................................................
.............................. CYCLE   23 ..............................
........................................................................

 iter      E             dE          RMSdq      gap      omega  full diag
   1   -117.5599149 -0.117560E+03  0.211E-02    2.31       0.0  T
   2   -117.5599155 -0.525733E-06  0.113E-02    2.31       1.0  T
   3   -117.5599153  0.169635E-06  0.310E-03    2.31       3.6  T
   4   -117.5599154 -0.137382E-06  0.161E-03    2.31       6.9  T
   5   -117.5599155 -0.109736E-06  0.701E-04    2.31      16.0  T
   6   -117.5599156 -0.287817E-07  0.269E-04    2.31      41.6  T
     SCC iter.                  ...        0 min,  0.845 sec
     gradient                   ...        0 min,  0.119 sec
 * total energy  :  -115.6292229 Eh     change       -0.2291533E-04 Eh
   gradient norm :     0.0014252 Eh/α   predicted    -0.1222304E-04 ( -46.66%)
   displ. norm   :     0.1372621 α      lambda       -0.2466751E-04
   maximum displ.:     0.0857673 α      in ANC's #3, #2, #10, ...

........................................................................
.............................. CYCLE   24 ..............................
........................................................................

 iter      E             dE          RMSdq      gap      omega  full diag
   1   -117.5595698 -0.117560E+03  0.246E-02    2.31       0.0  T
   2   -117.5595708 -0.983832E-06  0.131E-02    2.31       1.0  T
   3   -117.5595708  0.484613E-07  0.376E-03    2.31       3.0  T
   4   -117.5595708 -0.632005E-07  0.170E-03    2.31       6.6  T
   5   -117.5595709 -0.980761E-07  0.760E-04    2.31      14.7  T
   6   -117.5595709 -0.162345E-07  0.402E-04    2.31      27.8  T
     SCC iter.                  ...        0 min,  0.790 sec
     gradient                   ...        0 min,  0.114 sec
 * total energy  :  -115.6292374 Eh     change       -0.1456684E-04 Eh
   gradient norm :     0.0022088 Eh/α   predicted    -0.1243963E-04 ( -14.60%)
   displ. norm   :     0.0465535 α      lambda       -0.1691533E-04
   maximum displ.:     0.0307008 α      in ANC's #3, #2, #4, ...

........................................................................
.............................. CYCLE   25 ..............................
........................................................................

 iter      E             dE          RMSdq      gap      omega  full diag
   1   -117.5594668 -0.117559E+03  0.912E-03    2.31       0.0  T
   2   -117.5594669 -0.132557E-06  0.478E-03    2.31       2.3  T
   3   -117.5594669  0.812595E-07  0.172E-03    2.31       6.5  T
   4   -117.5594670 -0.858483E-07  0.833E-04    2.31      13.4  T
   5   -117.5594670 -0.266166E-07  0.335E-04    2.31      33.4  T
     SCC iter.                  ...        0 min,  0.514 sec
     gradient                   ...        0 min,  0.115 sec
 * total energy  :  -115.6292512 Eh     change       -0.1380885E-04 Eh
   gradient norm :     0.0016601 Eh/α   predicted    -0.8480064E-05 ( -38.59%)
   displ. norm   :     0.1601181 α      lambda       -0.3312373E-04
   maximum displ.:     0.1003145 α      in ANC's #3, #2, #4, ...

........................................................................
.............................. CYCLE   26 ..............................
........................................................................

 iter      E             dE          RMSdq      gap      omega  full diag
   1   -117.5590851 -0.117559E+03  0.302E-02    2.31       0.0  T
   2   -117.5590861 -0.106311E-05  0.166E-02    2.31       1.0  T
   3   -117.5590858  0.325456E-06  0.453E-03    2.31       2.5  T
   4   -117.5590861 -0.286099E-06  0.209E-03    2.31       5.4  T
   5   -117.5590863 -0.170119E-06  0.105E-03    2.31      10.6  T
   6   -117.5590863 -0.672903E-07  0.409E-04    2.31      27.3  T
   7   -117.5590863 -0.477735E-08  0.223E-04    2.31      50.1  T
     SCC iter.                  ...        0 min,  0.865 sec
     gradient                   ...        0 min,  0.116 sec
 * total energy  :  -115.6292796 Eh     change       -0.2836889E-04 Eh
   gradient norm :     0.0012693 Eh/α   predicted    -0.1675438E-04 ( -40.94%)
   displ. norm   :     0.1252803 α      lambda       -0.1595855E-04
   maximum displ.:     0.0826369 α      in ANC's #3, #2, #4, ...

........................................................................
.............................. CYCLE   27 ..............................
........................................................................

 iter      E             dE          RMSdq      gap      omega  full diag
   1   -117.5586134 -0.117559E+03  0.199E-02    2.31       0.0  T
   2   -117.5586135 -0.130703E-06  0.114E-02    2.31       1.0  T
   3   -117.5586134  0.137523E-06  0.185E-03    2.31       6.0  T
   4   -117.5586135 -0.126898E-06  0.948E-04    2.31      11.8  T
   5   -117.5586135 -0.487043E-07  0.345E-04    2.31      32.4  T
     SCC iter.                  ...        0 min,  0.687 sec
     gradient                   ...        0 min,  0.115 sec
 * total energy  :  -115.6293006 Eh     change       -0.2102478E-04 Eh
   gradient norm :     0.0013422 Eh/α   predicted    -0.8036213E-05 ( -61.78%)
   displ. norm   :     0.2103693 α      lambda       -0.2921668E-04
   maximum displ.:     0.1362983 α      in ANC's #3, #2, #4, ...

........................................................................
.............................. CYCLE   28 ..............................
........................................................................

 iter      E             dE          RMSdq      gap      omega  full diag
   1   -117.5582000 -0.117558E+03  0.352E-02    2.31       0.0  T
   2   -117.5582005 -0.548975E-06  0.200E-02    2.31       1.0  T
   3   -117.5582002  0.313244E-06  0.356E-03    2.31       3.1  T
   4   -117.5582005 -0.274026E-06  0.181E-03    2.31       6.2  T
   5   -117.5582006 -0.154528E-06  0.756E-04    2.31      14.8  T
   6   -117.5582006 -0.292472E-07  0.355E-04    2.31      31.5  T
     SCC iter.                  ...        0 min,  0.746 sec
     gradient                   ...        0 min,  0.119 sec
 * total energy  :  -115.6293356 Eh     change       -0.3496305E-04 Eh
   gradient norm :     0.0011887 Eh/α   predicted    -0.1489664E-04 ( -57.39%)
   displ. norm   :     0.2824584 α      lambda       -0.2839507E-04
   maximum displ.:     0.1851885 α      in ANC's #3, #2, #4, ...

........................................................................
.............................. CYCLE   29 ..............................
........................................................................

 iter      E             dE          RMSdq      gap      omega  full diag
   1   -117.5579051 -0.117558E+03  0.453E-02    2.31       0.0  T
   2   -117.5579056 -0.537625E-06  0.261E-02    2.31       1.0  T
   3   -117.5579048  0.829312E-06  0.401E-03    2.31       2.8  T
   4   -117.5579055 -0.732896E-06  0.215E-03    2.31       5.2  T
   5   -117.5579058 -0.283109E-06  0.789E-04    2.31      14.2  T
   6   -117.5579058 -0.378446E-07  0.265E-04    2.31      42.1  T
     SCC iter.                  ...        0 min,  0.783 sec
     gradient                   ...        0 min,  0.121 sec
 * total energy  :  -115.6293699 Eh     change       -0.3426710E-04 Eh
   gradient norm :     0.0012663 Eh/α   predicted    -0.1470301E-04 ( -57.09%)
   displ. norm   :     0.2423904 α      lambda       -0.2152895E-04
   maximum displ.:     0.1602768 α      in ANC's #3, #2, #4, ...

........................................................................
.............................. CYCLE   30 ..............................
........................................................................

 iter      E             dE          RMSdq      gap      omega  full diag
   1   -117.5581282 -0.117558E+03  0.380E-02    2.31       0.0  T
   2   -117.5581285 -0.315099E-06  0.221E-02    2.31       1.0  T
   3   -117.5581276  0.967294E-06  0.376E-03    2.31       3.0  T
   4   -117.5581286 -0.103136E-05  0.146E-03    2.32       7.7  T
   5   -117.5581287 -0.874409E-07  0.705E-04    2.31      15.9  T
   6   -117.5581287 -0.303496E-07  0.192E-04    2.31      58.3  T
     SCC iter.                  ...        0 min,  0.707 sec
     gradient                   ...        0 min,  0.115 sec
 * total energy  :  -115.6293975 Eh     change       -0.2765090E-04 Eh
   gradient norm :     0.0010319 Eh/α   predicted    -0.1104649E-04 ( -60.05%)
   displ. norm   :     0.2372142 α      lambda       -0.2130735E-04
   maximum displ.:     0.1587397 α      in ANC's #3, #2, #4, ...

........................................................................
.............................. CYCLE   31 ..............................
........................................................................

 iter      E             dE          RMSdq      gap      omega  full diag
   1   -117.5587732 -0.117559E+03  0.367E-02    2.32       0.0  T
   2   -117.5587735 -0.307267E-06  0.213E-02    2.32       1.0  T
   3   -117.5587725  0.102484E-05  0.373E-03    2.32       3.0  T
   4   -117.5587736 -0.109371E-05  0.142E-03    2.32       7.9  T
   5   -117.5587737 -0.885143E-07  0.640E-04    2.32      17.5  T
   6   -117.5587737 -0.229663E-07  0.177E-04    2.32      63.2  T
     SCC iter.                  ...        0 min,  0.738 sec
     gradient                   ...        0 min,  0.120 sec
 * total energy  :  -115.6294246 Eh     change       -0.2711116E-04 Eh
   gradient norm :     0.0005802 Eh/α   predicted    -0.1092098E-04 ( -59.72%)
   displ. norm   :     0.2559519 α      lambda       -0.2104164E-04
   maximum displ.:     0.1720391 α      in ANC's #3, #2, #4, ...

........................................................................
.............................. CYCLE   32 ..............................
........................................................................

 iter      E             dE          RMSdq      gap      omega  full diag
   1   -117.5589891 -0.117559E+03  0.391E-02    2.32       0.0  T
   2   -117.5589894 -0.345561E-06  0.227E-02    2.32       1.0  T
   3   -117.5589880  0.146738E-05  0.435E-03    2.32       2.6  T
   4   -117.5589895 -0.158894E-05  0.149E-03    2.32       7.5  T
   5   -117.5589896 -0.849138E-07  0.684E-04    2.32      16.3  T
   6   -117.5589897 -0.261823E-07  0.187E-04    2.32      59.8  T
     SCC iter.                  ...        0 min,  0.886 sec
     gradient                   ...        0 min,  0.118 sec
 * total energy  :  -115.6294511 Eh     change       -0.2652065E-04 Eh
   gradient norm :     0.0006835 Eh/α   predicted    -0.1082831E-04 ( -59.17%)
   displ. norm   :     0.2899205 α      lambda       -0.2152697E-04
   maximum displ.:     0.1941180 α      in ANC's #3, #2, #4, ...

........................................................................
.............................. CYCLE   33 ..............................
........................................................................

 iter      E             dE          RMSdq      gap      omega  full diag
   1   -117.5590227 -0.117559E+03  0.438E-02    2.32       0.0  T
   2   -117.5590231 -0.441573E-06  0.255E-02    2.32       1.0  T
   3   -117.5590211  0.199176E-05  0.507E-03    2.32       2.2  T
   4   -117.5590233 -0.217027E-05  0.168E-03    2.32       6.7  T
   5   -117.5590234 -0.102132E-06  0.774E-04    2.32      14.4  T
   6   -117.5590234 -0.320942E-07  0.201E-04    2.32      55.7  T
     SCC iter.                  ...        0 min,  0.693 sec
     gradient                   ...        0 min,  0.119 sec
 * total energy  :  -115.6294784 Eh     change       -0.2725782E-04 Eh
   gradient norm :     0.0009392 Eh/α   predicted    -0.1116933E-04 ( -59.02%)
   displ. norm   :     0.3688622 α      lambda       -0.2490793E-04
   maximum displ.:     0.2456961 α      in ANC's #3, #2, #4, ...

........................................................................
.............................. CYCLE   34 ..............................
........................................................................

 iter      E             dE          RMSdq      gap      omega  full diag
   1   -117.5585991 -0.117559E+03  0.549E-02    2.32       0.0  T
   2   -117.5585999 -0.747260E-06  0.319E-02    2.33       1.0  T
   3   -117.5585963  0.360971E-05  0.683E-03    2.32       1.6  T
   4   -117.5586002 -0.392862E-05  0.222E-03    2.33       5.0  T
   5   -117.5586004 -0.181598E-06  0.968E-04    2.33      11.5  T
   6   -117.5586004 -0.512987E-07  0.267E-04    2.33      41.9  T
     SCC iter.                  ...        0 min,  0.873 sec
     gradient                   ...        0 min,  0.115 sec
 * total energy  :  -115.6295086 Eh     change       -0.3024322E-04 Eh
   gradient norm :     0.0011537 Eh/α   predicted    -0.1320961E-04 ( -56.32%)
   displ. norm   :     0.5045031 α      lambda       -0.2896208E-04
   maximum displ.:     0.3352469 α      in ANC's #3, #2, #1, ...

........................................................................
.............................. CYCLE   35 ..............................
........................................................................

 iter      E             dE          RMSdq      gap      omega  full diag
   1   -117.5575663 -0.117558E+03  0.742E-02    2.33       0.0  T
   2   -117.5575679 -0.162483E-05  0.431E-02    2.33       1.0  T
   3   -117.5575606  0.734458E-05  0.985E-03    2.33       1.1  T
   4   -117.5575685 -0.790142E-05  0.331E-03    2.33       3.4  T
   5   -117.5575690 -0.488610E-06  0.139E-03    2.33       8.1  T
   6   -117.5575691 -0.930600E-07  0.428E-04    2.33      26.1  T
   7   -117.5575691 -0.634492E-08  0.208E-04    2.33      53.8  T
     SCC iter.                  ...        0 min,  0.859 sec
     gradient                   ...        0 min,  0.115 sec
 * total energy  :  -115.6295371 Eh     change       -0.2845332E-04 Eh
   gradient norm :     0.0014909 Eh/α   predicted    -0.1612278E-04 ( -43.34%)
   displ. norm   :     0.2236147 α      lambda       -0.1661237E-04
   maximum displ.:     0.1435220 α      in ANC's #3, #1, #2, ...

........................................................................
.............................. CYCLE   36 ..............................
........................................................................

 iter      E             dE          RMSdq      gap      omega  full diag
   1   -117.5589091 -0.117559E+03  0.329E-02    2.34       0.0  T
   2   -117.5589096 -0.495269E-06  0.189E-02    2.34       1.0  T
   3   -117.5589084  0.128355E-05  0.449E-03    2.33       2.5  T
   4   -117.5589097 -0.131610E-05  0.187E-03    2.34       6.0  T
   5   -117.5589099 -0.194236E-06  0.690E-04    2.34      16.2  T
   6   -117.5589099 -0.206125E-07  0.265E-04    2.34      42.1  T
     SCC iter.                  ...        0 min,  0.660 sec
     gradient                   ...        0 min,  0.117 sec
 * total energy  :  -115.6295543 Eh     change       -0.1722322E-04 Eh
   gradient norm :     0.0008760 Eh/α   predicted    -0.8495554E-05 ( -50.67%)
   displ. norm   :     0.2317000 α      lambda       -0.1319013E-04
   maximum displ.:     0.1459706 α      in ANC's #3, #1, #2, ...

........................................................................
.............................. CYCLE   37 ..............................
........................................................................

 iter      E             dE          RMSdq      gap      omega  full diag
   1   -117.5588009 -0.117559E+03  0.347E-02    2.34       0.0  T
   2   -117.5588014 -0.571844E-06  0.201E-02    2.34       1.0  T
   3   -117.5587997  0.177333E-05  0.507E-03    2.34       2.2  T
   4   -117.5588015 -0.185075E-05  0.198E-03    2.34       5.7  T
   5   -117.5588017 -0.220871E-06  0.751E-04    2.34      14.9  T
   6   -117.5588017 -0.187735E-07  0.299E-04    2.34      37.4  T
     SCC iter.                  ...        0 min,  0.810 sec
     gradient                   ...        0 min,  0.119 sec
 * total energy  :  -115.6295688 Eh     change       -0.1444839E-04 Eh
   gradient norm :     0.0005878 Eh/α   predicted    -0.6757023E-05 ( -53.23%)
   displ. norm   :     0.1413001 α      lambda       -0.1369275E-04
   maximum displ.:     0.0689200 α      in ANC's #7, #3, #1, ...

........................................................................
.............................. CYCLE   38 ..............................
........................................................................

 iter      E             dE          RMSdq      gap      omega  full diag
   1   -117.5599717 -0.117560E+03  0.232E-02    2.34       0.0  T
   2   -117.5599721 -0.377708E-06  0.132E-02    2.35       1.0  T
   3   -117.5599716  0.471062E-06  0.300E-03    2.35       3.7  T
   4   -117.5599721 -0.477312E-06  0.144E-03    2.35       7.7  T
   5   -117.5599722 -0.118855E-06  0.566E-04    2.35      19.8  T
   6   -117.5599722 -0.108704E-07  0.249E-04    2.35      44.9  T
     SCC iter.                  ...        0 min,  0.853 sec
     gradient                   ...        0 min,  0.116 sec
 * total energy  :  -115.6295822 Eh     change       -0.1345479E-04 Eh
   gradient norm :     0.0010633 Eh/α   predicted    -0.6909859E-05 ( -48.64%)
   displ. norm   :     0.1535392 α      lambda       -0.9070201E-05
   maximum displ.:     0.0775582 α      in ANC's #3, #1, #7, ...

........................................................................
.............................. CYCLE   39 ..............................
........................................................................

 iter      E             dE          RMSdq      gap      omega  full diag
   1   -117.5590804 -0.117559E+03  0.236E-02    2.35       0.0  T
   2   -117.5590807 -0.320826E-06  0.136E-02    2.35       1.0  T
   3   -117.5590800  0.650496E-06  0.318E-03    2.35       3.5  T
   4   -117.5590807 -0.692470E-06  0.135E-03    2.35       8.3  T
   5   -117.5590808 -0.988588E-07  0.498E-04    2.35      22.5  T
   6   -117.5590808 -0.926647E-08  0.167E-04    2.35      67.0  T
     SCC iter.                  ...        0 min,  0.697 sec
     gradient                   ...        0 min,  0.118 sec
 * total energy  :  -115.6295903 Eh     change       -0.8078322E-05 Eh
   gradient norm :     0.0006962 Eh/α   predicted    -0.4585988E-05 ( -43.23%)
   displ. norm   :     0.0877449 α      lambda       -0.6059117E-05
   maximum displ.:     0.0456489 α      in ANC's #2, #7, #3, ...

........................................................................
.............................. CYCLE   40 ..............................
........................................................................

 iter      E             dE          RMSdq      gap      omega  full diag
   1   -117.5594185 -0.117559E+03  0.136E-02    2.35       0.0  T
   2   -117.5594185 -0.552718E-07  0.785E-03    2.35       1.4  T
   3   -117.5594185  0.866540E-07  0.127E-03    2.35       8.8  T
   4   -117.5594186 -0.997820E-07  0.471E-04    2.35      23.8  T
   5   -117.5594186 -0.738716E-08  0.212E-04    2.35      52.7  T
     SCC iter.                  ...        0 min,  0.641 sec
     gradient                   ...        0 min,  0.121 sec
 * total energy  :  -115.6295965 Eh     change       -0.6208336E-05 Eh
   gradient norm :     0.0006009 Eh/α   predicted    -0.3044542E-05 ( -50.96%)
   displ. norm   :     0.0953368 α      lambda       -0.5243993E-05
   maximum displ.:     0.0537632 α      in ANC's #2, #3, #7, ...

........................................................................
.............................. CYCLE   41 ..............................
........................................................................

 iter      E             dE          RMSdq      gap      omega  full diag
   1   -117.5591725 -0.117559E+03  0.144E-02    2.35       0.0  T
   2   -117.5591726 -0.617544E-07  0.831E-03    2.35       1.3  T
   3   -117.5591724  0.187488E-06  0.171E-03    2.35       6.5  T
   4   -117.5591726 -0.202776E-06  0.618E-04    2.35      18.1  T
   5   -117.5591726 -0.157689E-07  0.284E-04    2.35      39.4  T
     SCC iter.                  ...        0 min,  0.577 sec
     gradient                   ...        0 min,  0.112 sec
 * total energy  :  -115.6296016 Eh     change       -0.5114094E-05 Eh
   gradient norm :     0.0004656 Eh/α   predicted    -0.2633488E-05 ( -48.51%)
   displ. norm   :     0.0774255 α      lambda       -0.3293824E-05
   maximum displ.:     0.0444581 α      in ANC's #2, #3, #4, ...

........................................................................
.............................. CYCLE   42 ..............................
........................................................................

 iter      E             dE          RMSdq      gap      omega  full diag
   1   -117.5590844 -0.117559E+03  0.110E-02    2.35       0.0  T
   2   -117.5590844 -0.468926E-07  0.635E-03    2.35       1.8  T
   3   -117.5590843  0.120876E-06  0.147E-03    2.35       7.6  T
   4   -117.5590845 -0.127206E-06  0.565E-04    2.35      19.8  T
   5   -117.5590845 -0.142557E-07  0.255E-04    2.35      43.8  T
     SCC iter.                  ...        0 min,  0.567 sec
     gradient                   ...        0 min,  0.117 sec
 * total energy  :  -115.6296049 Eh     change       -0.3322223E-05 Eh
   gradient norm :     0.0004282 Eh/α   predicted    -0.1653240E-05 ( -50.24%)
   displ. norm   :     0.0591149 α      lambda       -0.2441686E-05
   maximum displ.:     0.0341494 α      in ANC's #2, #3, #5, ...
 * RMSD in coord.:     0.3538602 α      energy gain  -0.4805279E-03 Eh

generating ANC from exact Hessian ...
Using Lindh-Hessian (1995)
 Shifting diagonal of input Hessian by    1.0092819388827343E-002
 Lowest  eigenvalues of input Hessian
    0.010000    0.000000    0.000000    0.000000    0.000000    0.000000
    0.000000    0.010177    0.010247    0.010417    0.010434    0.010597
    0.010824    0.010849    0.011068    0.011171    0.011468    0.011920
 Highest eigenvalues
    2.026380    2.030546    2.073510    2.113932    2.117590    2.125574


........................................................................
.............................. CYCLE   43 ..............................
........................................................................

 iter      E             dE          RMSdq      gap      omega  full diag
   1   -117.5590008 -0.117559E+03  0.776E-03    2.35       0.0  T
   2   -117.5590008 -0.305019E-07  0.443E-03    2.35       2.5  T
   3   -117.5590008  0.649357E-07  0.111E-03    2.35      10.1  T
   4   -117.5590008 -0.707904E-07  0.426E-04    2.35      26.3  T
   5   -117.5590008 -0.664122E-08  0.175E-04    2.35      63.9  T
     SCC iter.                  ...        0 min,  0.659 sec
     gradient                   ...        0 min,  0.116 sec
 * total energy  :  -115.6296077 Eh     change       -0.2733147E-05 Eh
   gradient norm :     0.0003861 Eh/α   predicted     0.0000000E+00 (-100.00%)
   displ. norm   :     0.0112750 α      lambda       -0.1535513E-06
   maximum displ.:     0.0035293 α      in ANC's #12, #16, #8, ...

........................................................................
.............................. CYCLE   44 ..............................
........................................................................

 iter      E             dE          RMSdq      gap      omega  full diag
   1   -117.5591374 -0.117559E+03  0.288E-03    2.35       0.0  T
   2   -117.5591374 -0.132425E-07  0.155E-03    2.35       7.2  T
   3   -117.5591374  0.324239E-08  0.460E-04    2.35      24.3  T
   4   -117.5591374 -0.154604E-08  0.258E-04    2.35      43.3  T
     SCC iter.                  ...        0 min,  0.529 sec
     gradient                   ...        0 min,  0.114 sec
 * total energy  :  -115.6296088 Eh     change       -0.1129400E-05 Eh
   gradient norm :     0.0002080 Eh/α   predicted    -0.5522195E-06 ( -51.11%)
   displ. norm   :     0.0344443 α      lambda       -0.2230817E-05
   maximum displ.:     0.0108058 α      in ANC's #12, #15, #5, ...

........................................................................
.............................. CYCLE   45 ..............................
........................................................................

 iter      E             dE          RMSdq      gap      omega  full diag
   1   -117.5593031 -0.117559E+03  0.749E-03    2.35       0.0  T
   2   -117.5593031 -0.701762E-07  0.377E-03    2.35       3.0  T
   3   -117.5593031  0.269279E-07  0.118E-03    2.35       9.4  T
   4   -117.5593031 -0.150758E-07  0.653E-04    2.35      17.1  T
   5   -117.5593031 -0.228402E-07  0.252E-04    2.35      44.3  T
     SCC iter.                  ...        0 min,  0.624 sec
     gradient                   ...        0 min,  0.117 sec
 * total energy  :  -115.6296098 Eh     change       -0.1046084E-05 Eh
   gradient norm :     0.0006605 Eh/α   predicted    -0.1118637E-05 (   6.94%)
   displ. norm   :     0.0214516 α      lambda       -0.1763592E-05
   maximum displ.:     0.0075328 α      in ANC's #8, #5, #1, ...

........................................................................
.............................. CYCLE   46 ..............................
........................................................................

 iter      E             dE          RMSdq      gap      omega  full diag
   1   -117.5591999 -0.117559E+03  0.452E-03    2.35       0.0  T
   2   -117.5592000 -0.390565E-07  0.236E-03    2.35       4.7  T
   3   -117.5592000  0.404556E-08  0.753E-04    2.35      14.8  T
   4   -117.5592000  0.137888E-09  0.436E-04    2.35      25.6  T
     SCC iter.                  ...        0 min,  0.402 sec
     gradient                   ...        0 min,  0.114 sec
 * total energy  :  -115.6296113 Eh     change       -0.1474096E-05 Eh
   gradient norm :     0.0004072 Eh/α   predicted    -0.8837164E-06 ( -40.05%)
   displ. norm   :     0.0155512 α      lambda       -0.7799563E-06
   maximum displ.:     0.0063736 α      in ANC's #8, #5, #1, ...

........................................................................
.............................. CYCLE   47 ..............................
........................................................................

 iter      E             dE          RMSdq      gap      omega  full diag
   1   -117.5590851 -0.117559E+03  0.209E-03    2.35       0.0  T
   2   -117.5590851 -0.394080E-08  0.118E-03    2.35       9.5  T
   3   -117.5590851  0.499584E-08  0.340E-04    2.35      32.9  T
   4   -117.5590851 -0.510877E-08  0.142E-04    2.35      78.8  T
     SCC iter.                  ...        0 min,  0.509 sec
     gradient                   ...        0 min,  0.116 sec
 * total energy  :  -115.6296122 Eh     change       -0.9051342E-06 Eh
   gradient norm :     0.0002199 Eh/α   predicted    -0.3902898E-06 ( -56.88%)
   displ. norm   :     0.0402154 α      lambda       -0.1295746E-05
   maximum displ.:     0.0163432 α      in ANC's #8, #5, #1, ...

........................................................................
.............................. CYCLE   48 ..............................
........................................................................

 iter      E             dE          RMSdq      gap      omega  full diag
   1   -117.5589568 -0.117559E+03  0.501E-03    2.35       0.0  T
   2   -117.5589568 -0.179913E-07  0.273E-03    2.35       4.1  T
   3   -117.5589568  0.202334E-08  0.558E-04    2.35      20.0  T
   4   -117.5589568 -0.253804E-08  0.288E-04    2.35      38.9  T
     SCC iter.                  ...        0 min,  0.419 sec
     gradient                   ...        0 min,  0.112 sec
 * total energy  :  -115.6296136 Eh     change       -0.1403362E-05 Eh
   gradient norm :     0.0003347 Eh/α   predicted    -0.6526886E-06 ( -53.49%)
   displ. norm   :     0.0497963 α      lambda       -0.1126551E-05
   maximum displ.:     0.0194888 α      in ANC's #1, #8, #5, ...

........................................................................
.............................. CYCLE   49 ..............................
........................................................................

 iter      E             dE          RMSdq      gap      omega  full diag
   1   -117.5589123 -0.117559E+03  0.560E-03    2.35       0.0  T
   2   -117.5589123 -0.314248E-07  0.295E-03    2.35       3.8  T
   3   -117.5589123  0.611361E-08  0.781E-04    2.35      14.3  T
   4   -117.5589123 -0.864323E-08  0.373E-04    2.35      30.0  T
     SCC iter.                  ...        0 min,  0.371 sec
     gradient                   ...        0 min,  0.112 sec
 * total energy  :  -115.6296149 Eh     change       -0.1232369E-05 Eh
   gradient norm :     0.0003986 Eh/α   predicted    -0.5662832E-06 ( -54.05%)
   displ. norm   :     0.0613680 α      lambda       -0.1247008E-05
   maximum displ.:     0.0240159 α      in ANC's #1, #8, #5, ...

........................................................................
.............................. CYCLE   50 ..............................
........................................................................

 iter      E             dE          RMSdq      gap      omega  full diag
   1   -117.5589059 -0.117559E+03  0.719E-03    2.35       0.0  T
   2   -117.5589060 -0.429747E-07  0.378E-03    2.35       3.0  T
   3   -117.5589060  0.416475E-07  0.112E-03    2.35      10.0  T
   4   -117.5589060 -0.443348E-07  0.565E-04    2.35      19.8  T
   5   -117.5589060 -0.111151E-07  0.180E-04    2.35      62.2  T
     SCC iter.                  ...        0 min,  0.657 sec
     gradient                   ...        0 min,  0.122 sec
 * total energy  :  -115.6296162 Eh     change       -0.1309949E-05 Eh
   gradient norm :     0.0003542 Eh/α   predicted    -0.6301745E-06 ( -51.89%)
   displ. norm   :     0.0779588 α      lambda       -0.1475465E-05
   maximum displ.:     0.0338076 α      in ANC's #1, #5, #8, ...

........................................................................
.............................. CYCLE   51 ..............................
........................................................................

 iter      E             dE          RMSdq      gap      omega  full diag
   1   -117.5589744 -0.117559E+03  0.796E-03    2.35       0.0  T
   2   -117.5589745 -0.595964E-07  0.422E-03    2.35       2.6  T
   3   -117.5589745  0.107174E-07  0.105E-03    2.35      10.6  T
   4   -117.5589745 -0.165292E-07  0.521E-04    2.35      21.4  T
   5   -117.5589745 -0.652730E-08  0.215E-04    2.35      52.0  T
     SCC iter.                  ...        0 min,  0.585 sec
     gradient                   ...        0 min,  0.118 sec
 * total energy  :  -115.6296177 Eh     change       -0.1489925E-05 Eh
   gradient norm :     0.0002653 Eh/α   predicted    -0.7418133E-06 ( -50.21%)
   displ. norm   :     0.0520237 α      lambda       -0.1089884E-05
   maximum displ.:     0.0233980 α      in ANC's #1, #5, #2, ...

........................................................................
.............................. CYCLE   52 ..............................
........................................................................

 iter      E             dE          RMSdq      gap      omega  full diag
   1   -117.5590395 -0.117559E+03  0.562E-03    2.35       0.0  T
   2   -117.5590395 -0.203287E-07  0.305E-03    2.35       3.7  T
   3   -117.5590395  0.155910E-07  0.762E-04    2.35      14.7  T
   4   -117.5590396 -0.177918E-07  0.378E-04    2.35      29.6  T
     SCC iter.                  ...        0 min,  0.475 sec
     gradient                   ...        0 min,  0.115 sec
 * total energy  :  -115.6296189 Eh     change       -0.1271120E-05 Eh
   gradient norm :     0.0002464 Eh/α   predicted    -0.5486515E-06 ( -56.84%)
   displ. norm   :     0.0694552 α      lambda       -0.1327546E-05
   maximum displ.:     0.0333140 α      in ANC's #1, #2, #5, ...

........................................................................
.............................. CYCLE   53 ..............................
........................................................................

 iter      E             dE          RMSdq      gap      omega  full diag
   1   -117.5590956 -0.117559E+03  0.767E-03    2.35       0.0  T
   2   -117.5590956 -0.253666E-07  0.431E-03    2.35       2.6  T
   3   -117.5590955  0.475808E-07  0.101E-03    2.35      11.1  T
   4   -117.5590956 -0.541044E-07  0.419E-04    2.35      26.7  T
   5   -117.5590956 -0.532317E-08  0.121E-04    2.35      92.3  T
     SCC iter.                  ...        0 min,  0.616 sec
     gradient                   ...        0 min,  0.118 sec
 * total energy  :  -115.6296203 Eh     change       -0.1348606E-05 Eh
   gradient norm :     0.0002547 Eh/α   predicted    -0.6692266E-06 ( -50.38%)
   displ. norm   :     0.0338149 α      lambda       -0.5807851E-06
   maximum displ.:     0.0178047 α      in ANC's #1, #2, #5, ...

........................................................................
.............................. CYCLE   54 ..............................
........................................................................

 iter      E             dE          RMSdq      gap      omega  full diag
   1   -117.5590766 -0.117559E+03  0.398E-03    2.35       0.0  T
   2   -117.5590766 -0.703380E-08  0.221E-03    2.35       5.1  T
   3   -117.5590766  0.757373E-08  0.487E-04    2.35      23.0  T
   4   -117.5590766 -0.820832E-08  0.244E-04    2.35      45.7  T
     SCC iter.                  ...        0 min,  0.437 sec
     gradient                   ...        0 min,  0.119 sec
 * total energy  :  -115.6296209 Eh     change       -0.6256068E-06 Eh
   gradient norm :     0.0001979 Eh/α   predicted    -0.2930194E-06 ( -53.16%)
   displ. norm   :     0.0229043 α      lambda       -0.4686163E-06
   maximum displ.:     0.0131939 α      in ANC's #1, #2, #5, ...

........................................................................
.............................. CYCLE   55 ..............................
........................................................................

 iter      E             dE          RMSdq      gap      omega  full diag
   1   -117.5590676 -0.117559E+03  0.283E-03    2.35       0.0  T
   2   -117.5590676 -0.289869E-08  0.160E-03    2.35       7.0  T
   3   -117.5590676  0.122038E-07  0.442E-04    2.35      25.3  T
   4   -117.5590676 -0.131642E-07  0.164E-04    2.35      68.3  T
     SCC iter.                  ...        0 min,  0.404 sec
     gradient                   ...        0 min,  0.116 sec
 * total energy  :  -115.6296214 Eh     change       -0.5376840E-06 Eh
   gradient norm :     0.0001219 Eh/α   predicted    -0.2379758E-06 ( -55.74%)
   displ. norm   :     0.0217737 α      lambda       -0.3723924E-06
   maximum displ.:     0.0130688 α      in ANC's #1, #2, #5, ...

........................................................................
.............................. CYCLE   56 ..............................
........................................................................

 iter      E             dE          RMSdq      gap      omega  full diag
   1   -117.5590355 -0.117559E+03  0.296E-03    2.35       0.0  T
   2   -117.5590355 -0.369910E-08  0.165E-03    2.35       6.8  T
   3   -117.5590355  0.914393E-08  0.405E-04    2.35      27.6  T
   4   -117.5590355 -0.878406E-08  0.199E-04    2.35      56.1  T
     SCC iter.                  ...        0 min,  0.547 sec
     gradient                   ...        0 min,  0.115 sec
 * total energy  :  -115.6296219 Eh     change       -0.4153512E-06 Eh
   gradient norm :     0.0001329 Eh/α   predicted    -0.1880217E-06 ( -54.73%)
   displ. norm   :     0.0183839 α      lambda       -0.2484901E-06
   maximum displ.:     0.0115212 α      in ANC's #1, #4, #2, ...

........................................................................
.............................. CYCLE   57 ..............................
........................................................................

 iter      E             dE          RMSdq      gap      omega  full diag
   1   -117.5590279 -0.117559E+03  0.249E-03    2.35       0.0  T
   2   -117.5590279 -0.214028E-08  0.141E-03    2.35       8.0  T
   3   -117.5590279  0.591150E-08  0.319E-04    2.35      35.0  T
   4   -117.5590279 -0.562866E-08  0.151E-04    2.35      74.0  T
     SCC iter.                  ...        0 min,  0.526 sec
     gradient                   ...        0 min,  0.117 sec
 * total energy  :  -115.6296222 Eh     change       -0.3035473E-06 Eh
   gradient norm :     0.0001237 Eh/α   predicted    -0.1269847E-06 ( -58.17%)
   displ. norm   :     0.0175994 α      lambda       -0.2357803E-06
   maximum displ.:     0.0109578 α      in ANC's #1, #4, #2, ...

........................................................................
.............................. CYCLE   58 ..............................
........................................................................

 iter      E             dE          RMSdq      gap      omega  full diag
   1   -117.5590396 -0.117559E+03  0.243E-03    2.35       0.0  T
   2   -117.5590396 -0.198878E-08  0.138E-03    2.35       8.1  T
   3   -117.5590396  0.597456E-08  0.308E-04    2.35      36.3  T
   4   -117.5590396 -0.600299E-08  0.131E-04    2.35      85.0  T
     SCC iter.                  ...        0 min,  0.410 sec
     gradient                   ...        0 min,  0.119 sec
 * total energy  :  -115.6296225 Eh     change       -0.2990995E-06 Eh
   gradient norm :     0.0000864 Eh/α   predicted    -0.1190639E-06 ( -60.19%)
   displ. norm   :     0.0223249 α      lambda       -0.2787122E-06
   maximum displ.:     0.0136329 α      in ANC's #1, #4, #2, ...

........................................................................
.............................. CYCLE   59 ..............................
........................................................................

 iter      E             dE          RMSdq      gap      omega  full diag
   1   -117.5590413 -0.117559E+03  0.319E-03    2.35       0.0  T
   2   -117.5590413 -0.297393E-08  0.183E-03    2.35       6.1  T
   3   -117.5590413  0.133172E-07  0.422E-04    2.35      26.5  T
   4   -117.5590413 -0.139980E-07  0.152E-04    2.35      73.4  T
     SCC iter.                  ...        0 min,  0.407 sec
     gradient                   ...        0 min,  0.118 sec
 * total energy  :  -115.6296228 Eh     change       -0.3391664E-06 Eh
   gradient norm :     0.0000947 Eh/α   predicted    -0.1417626E-06 ( -58.20%)
   displ. norm   :     0.0286041 α      lambda       -0.3053648E-06
   maximum displ.:     0.0171875 α      in ANC's #1, #4, #2, ...

........................................................................
.............................. CYCLE   60 ..............................
........................................................................

 iter      E             dE          RMSdq      gap      omega  full diag
   1   -117.5590511 -0.117559E+03  0.413E-03    2.35       0.0  T
   2   -117.5590511 -0.432453E-08  0.239E-03    2.35       4.7  T
   3   -117.5590511  0.243573E-07  0.541E-04    2.35      20.7  T
   4   -117.5590511 -0.261161E-07  0.169E-04    2.35      66.2  T
     SCC iter.                  ...        0 min,  0.415 sec
     gradient                   ...        0 min,  0.115 sec
 * total energy  :  -115.6296232 Eh     change       -0.3601151E-06 Eh
   gradient norm :     0.0001404 Eh/α   predicted    -0.1542656E-06 ( -57.16%)
   displ. norm   :     0.0363693 α      lambda       -0.3373704E-06
   maximum displ.:     0.0216991 α      in ANC's #1, #4, #2, ...

........................................................................
.............................. CYCLE   61 ..............................
........................................................................

 iter      E             dE          RMSdq      gap      omega  full diag
   1   -117.5590348 -0.117559E+03  0.533E-03    2.35       0.0  T
   2   -117.5590348 -0.650597E-08  0.310E-03    2.35       3.6  T
   3   -117.5590347  0.429709E-07  0.704E-04    2.35      15.9  T
   4   -117.5590348 -0.466260E-07  0.195E-04    2.35      57.4  T
[...]
      -------------------------------------------------------------
                  HL-Gap            0.0871900 Eh            2.3726 eV
             Fermi-level           -0.4250047 Eh          -11.5650 eV

     #   Z          covCN         q      C6AA      α(0)
     1   6 C        3.757    -0.032    21.193     6.564
     2   7 N        2.684    -0.127    23.756     7.239
     3   6 C        3.329     0.053    24.585     7.870
     4   6 C        2.913    -0.046    29.143     8.852
     5   6 C        2.920    -0.034    28.852     8.808
     6   6 C        2.986     0.013    27.719     8.636
     7   6 C        2.919    -0.031    28.764     8.795
     8   6 C        2.915    -0.021    28.534     8.759
     9   6 C        2.917    -0.022    28.550     8.762
    10   6 C        2.917    -0.032    28.793     8.799
    11   6 C        2.987     0.011    27.764     8.643
    12   6 C        2.981    -0.007    28.192     8.710
    13   6 C        2.978    -0.013    28.327     8.730
    14   6 C        3.060     0.057    26.674     8.469
    15   6 C        2.916    -0.049    29.215     8.863
    16   6 C        2.918    -0.033    28.814     8.802
    17   6 C        2.986     0.011    27.754     8.642
    18   6 C        2.919    -0.031    28.780     8.797
    19   6 C        2.915    -0.024    28.596     8.769
    20   6 C        2.916    -0.023    28.590     8.768
    21   6 C        2.917    -0.033    28.822     8.804
    22   6 C        2.988     0.012    27.739     8.639
    23   7 N        2.683    -0.116    23.531     7.205
    24   6 C        3.911    -0.040    21.229     6.549
    25  15 P        4.693     0.277   148.502    21.890
    26  16 S        1.899    -0.064   143.701    20.176
    27  16 S        2.090    -0.056   143.371    20.153
    28   6 C        2.970     0.032    27.272     8.566
    29   6 C        2.946    -0.036    28.905     8.818
    30   6 C        2.921    -0.031    28.773     8.796
    31   6 C        2.986     0.016    27.639     8.624
    32   6 C        2.918    -0.031    28.763     8.795
    33   6 C        2.916    -0.021    28.526     8.758
    34   6 C        2.916    -0.022    28.559     8.763
    35   6 C        2.918    -0.033    28.824     8.804
    36   6 C        2.990     0.014    27.690     8.632
    37   6 C        2.967    -0.039    28.973     8.829
    38   7 N        2.680    -0.133    23.884     7.258
    39   6 C        3.832    -0.047    21.387     6.580
    40   6 C        3.936     0.085    19.112     6.213
    41   6 C        3.761    -0.124    22.930     6.826
    42   6 C        3.759    -0.125    22.952     6.830
    43   6 C        3.773    -0.124    22.915     6.821
    44   1 H        0.924     0.061     2.184     2.311
    45   1 H        0.925     0.060     2.195     2.317
    46   1 H        0.924     0.058     2.221     2.331
    47   1 H        0.926     0.038     2.480     2.463
    48   1 H        0.926     0.053     2.284     2.363
    49   1 H        0.926     0.049     2.332     2.388
    50   1 H        0.926     0.053     2.285     2.364
    51   1 H        0.926     0.050     2.319     2.381
    52   1 H        0.926     0.041     2.442     2.444
    53   1 H        0.926     0.050     2.322     2.383
    54   1 H        0.926     0.053     2.284     2.363
    55   1 H        0.926     0.047     2.354     2.399
    56   1 H        0.926     0.049     2.335     2.389
    57   1 H        0.926     0.045     2.377     2.411
    58   1 H        0.926     0.035     2.514     2.479
    59   1 H        0.925     0.071     2.070     2.250
    60   1 H        0.924     0.065     2.138     2.287
    61   1 H        0.925     0.074     2.045     2.236
    62   1 H        0.926     0.050     2.318     2.381
    63   1 H        0.926     0.055     2.261     2.352
    64   1 H        0.926     0.050     2.325     2.384
    65   1 H        0.926     0.052     2.294     2.369
    66   1 H        0.926     0.048     2.350     2.397
    67   1 H        0.926     0.038     2.481     2.463
    68   1 H        0.926     0.045     2.380     2.412
    69   1 H        0.924     0.060     2.195     2.317
    70   1 H        0.925     0.069     2.093     2.262
    71   1 H        0.925     0.069     2.098     2.265
    72   1 H        0.925     0.051     2.305     2.374
    73   1 H        0.925     0.058     2.223     2.332
    74   1 H        0.925     0.067     2.123     2.278
    75   1 H        0.925     0.067     2.124     2.279
    76   1 H        0.925     0.050     2.319     2.381
    77   1 H        0.925     0.051     2.309     2.376
    78   1 H        0.925     0.061     2.190     2.314
    79   1 H        0.925     0.072     2.063     2.246
    80   1 H        0.925     0.054     2.269     2.355

 Mol. C6AA /au·bohr⁶  :      88856.475556
 Mol. C8AA /au·bohr⁸  :    2405928.426987
 Mol. α(0) /au        :        478.707162


Wiberg/Mayer (AO) data.
largest (>0.10) Wiberg bond orders for each atom

 ---------------------------------------------------------------------------
     #   Z sym  total        # sym  WBO       # sym  WBO       # sym  WBO
 ---------------------------------------------------------------------------
     1   6 C    3.960 --     2 N    0.976    44 H    0.976    46 H    0.976
                            45 H    0.968
     2   7 N    3.399 --    25 P    1.215     1 C    0.976     3 C    0.950
     3   6 C    3.951 --    12 C    1.453     4 C    1.288     2 N    0.950
     4   6 C    3.989 --     5 C    1.557     3 C    1.288    47 H    0.961
     5   6 C    3.985 --     4 C    1.557     6 C    1.273    48 H    0.966
                            12 C    0.105
     6   6 C    3.988 --     7 C    1.283     5 C    1.273    11 C    1.252
     7   6 C    3.988 --     8 C    1.553     6 C    1.283    49 H    0.967
                            10 C    0.117
     8   6 C    3.986 --     7 C    1.553     9 C    1.324    50 H    0.969
     9   6 C    3.989 --    10 C    1.551     8 C    1.324    51 H    0.969
    10   6 C    3.988 --     9 C    1.551    11 C    1.286    52 H    0.965
                             7 C    0.117
    11   6 C    3.987 --    10 C    1.286     6 C    1.252    12 C    1.234
    12   6 C    3.987 --     3 C    1.453    11 C    1.234    13 C    1.029
                             5 C    0.105
    13   6 C    3.985 --    14 C    1.447    22 C    1.235    12 C    1.029
                            16 C    0.106
    14   6 C    3.950 --    13 C    1.447    15 C    1.282    23 N    0.997
    15   6 C    3.988 --    16 C    1.556    14 C    1.282    53 H    0.962
    16   6 C    3.985 --    15 C    1.556    17 C    1.271    54 H    0.966
                            13 C    0.106
    17   6 C    3.988 --    18 C    1.280    16 C    1.271    22 C    1.254
    18   6 C    3.988 --    19 C    1.553    17 C    1.280    55 H    0.967
                            21 C    0.118
    19   6 C    3.985 --    18 C    1.553    20 C    1.323    56 H    0.970
    20   6 C    3.990 --    21 C    1.552    19 C    1.323    57 H    0.970
    21   6 C    3.989 --    20 C    1.552    22 C    1.284    58 H    0.966
                            18 C    0.118
    22   6 C    3.987 --    21 C    1.284    17 C    1.254    13 C    1.235
    23   7 N    3.441 --    25 P    1.208    14 C    0.997    24 C    0.970
    24   6 C    3.959 --    61 H    0.977    60 H    0.970    23 N    0.970
                            59 H    0.962
    25  15 P    5.144 --    38 N    1.248     2 N    1.215    23 N    1.208
                            26 S    0.979
    26  16 S    2.458 --    27 S    1.147    25 P    0.979
    27  16 S    2.337 --    26 S    1.147    28 C    0.977
    28   6 C    3.952 --    37 C    1.512    29 C    1.292    27 S    0.977
    29   6 C    3.989 --    30 C    1.560    28 C    1.292    62 H    0.967
    30   6 C    3.990 --    29 C    1.560    31 C    1.275    63 H    0.965
                            37 C    0.110
    31   6 C    3.985 --    32 C    1.285    30 C    1.275    36 C    1.246
    32   6 C    3.989 --    33 C    1.553    31 C    1.285    64 H    0.967
                            35 C    0.117
    33   6 C    3.983 --    32 C    1.553    34 C    1.321    65 H    0.969
    34   6 C    3.990 --    35 C    1.557    33 C    1.321    66 H    0.970
    35   6 C    3.988 --    34 C    1.557    36 C    1.276    67 H    0.966
                            32 C    0.117
    36   6 C    3.990 --    37 C    1.281    35 C    1.276    31 C    1.246
    37   6 C    3.989 --    28 C    1.512    36 C    1.281    68 H    0.960
                            30 C    0.110
    38   7 N    3.403 --    25 P    1.248    39 C    0.971    40 C    0.924
    39   6 C    3.957 --    69 H    0.976    70 H    0.973    38 N    0.971
                            71 H    0.964
    40   6 C    3.956 --    43 C    0.998    42 C    0.995    41 C    0.994
                            38 N    0.924
    41   6 C    3.988 --    40 C    0.994    72 H    0.983    73 H    0.982
                            74 H    0.979
    42   6 C    3.988 --    40 C    0.995    76 H    0.982    75 H    0.980
                            77 H    0.973
    43   6 C    3.992 --    40 C    0.998    79 H    0.976    80 H    0.974
                            78 H    0.943
    44   1 H    0.996 --     1 C    0.976
    45   1 H    0.996 --     1 C    0.968
    46   1 H    0.996 --     1 C    0.976
    47   1 H    0.997 --     4 C    0.961
    48   1 H    0.996 --     5 C    0.966
    49   1 H    0.997 --     7 C    0.967
    50   1 H    0.996 --     8 C    0.969
    51   1 H    0.997 --     9 C    0.969
    52   1 H    0.998 --    10 C    0.965
    53   1 H    0.997 --    15 C    0.962
    54   1 H    0.996 --    16 C    0.966
    55   1 H    0.997 --    18 C    0.967
    56   1 H    0.997 --    19 C    0.970
    57   1 H    0.997 --    20 C    0.970
    58   1 H    0.998 --    21 C    0.966
    59   1 H    0.994 --    24 C    0.962
    60   1 H    0.995 --    24 C    0.970
    61   1 H    0.994 --    24 C    0.977
    62   1 H    0.997 --    29 C    0.967
    63   1 H    0.996 --    30 C    0.965
    64   1 H    0.997 --    32 C    0.967
    65   1 H    0.997 --    33 C    0.969
    66   1 H    0.997 --    34 C    0.970
    67   1 H    0.998 --    35 C    0.966
    68   1 H    0.997 --    37 C    0.960
    69   1 H    0.996 --    39 C    0.976
    70   1 H    0.991 --    39 C    0.973
    71   1 H    0.995 --    39 C    0.964
    72   1 H    0.997 --    41 C    0.983
    73   1 H    0.996 --    41 C    0.982
    74   1 H    0.994 --    41 C    0.979
    75   1 H    0.995 --    42 C    0.980
    76   1 H    0.997 --    42 C    0.982
    77   1 H    0.997 --    42 C    0.973
    78   1 H    0.996 --    43 C    0.943
    79   1 H    0.994 --    43 C    0.976
    80   1 H    0.997 --    43 C    0.974
 ---------------------------------------------------------------------------

Topologies differ in total number of bonds
Writing topology from bond orders to xtbtopo.mol

molecular dipole:
                 x           y           z       tot (Debye)
 q only:       -0.193       1.444       0.478
   full:       -0.058       1.253       0.437       3.376
molecular quadrupole (traceless):
                xx          xy          yy          xz          yz          zz
 q only:       -0.761      -6.283      21.316       0.220       8.957     -20.555
  q+dip:       -1.009      -3.476      19.253       1.113       9.236     -18.244
   full:       -0.223      -7.106      19.186       0.166       9.846     -18.963

           -------------------------------------------------
          |                Geometry Summary                 |
           -------------------------------------------------

      molecular mass/u    :      618.8144825
   center of mass at/Å    :        0.1426072      -0.1351304      -0.2824587
  moments of inertia/u·Å² :        0.5437467E+04   0.6254298E+04   0.8849941E+04
rotational constants/cm⁻¹ :        0.3100273E-02   0.2695367E-02   0.1904830E-02

 * 84 selected distances

     #   Z          #   Z                                           value/Å
     1   6 C        2   7 N                                       1.4503406
     2   7 N        3   6 C                                       1.4365797
     3   6 C        4   6 C                                       1.4044727
     4   6 C        5   6 C                                       1.3648656
     5   6 C        6   6 C                                       1.4115343
     6   6 C        7   6 C                                       1.4100968
     7   6 C        8   6 C                                       1.3669013
     8   6 C        9   6 C                                       1.4028095
     9   6 C       10   6 C                                       1.3675538
     6   6 C       11   6 C                                       1.4208632
    10   6 C       11   6 C                                       1.4108643
     3   6 C       12   6 C                                       1.3760765
    11   6 C       12   6 C                                       1.4235390
    13   6 C       14   6 C                                       1.3811127
    14   6 C       15   6 C                                       1.4089713
    15   6 C       16   6 C                                       1.3647576
    16   6 C       17   6 C                                       1.4101360
    17   6 C       18   6 C                                       1.4103309
    18   6 C       19   6 C                                       1.3668519
    19   6 C       20   6 C                                       1.4032402
    20   6 C       21   6 C                                       1.3675581
    13   6 C       22   6 C                                       1.4241899
    17   6 C       22   6 C                                       1.4195476
    21   6 C       22   6 C                                       1.4117625
    14   6 C       23   7 N                                       1.4222177
    23   7 N       24   6 C                                       1.4605440
     2   7 N       25  15 P                                       1.6548131
    23   7 N       25  15 P                                       1.6596469
    25  15 P       26  16 S                                       2.1393899 (max)
    26  16 S       27  16 S                                       2.0504894
    28   6 C       29   6 C                                       1.4048614
    29   6 C       30   6 C                                       1.3654224
    30   6 C       31   6 C                                       1.4125572
    31   6 C       32   6 C                                       1.4097214
    32   6 C       33   6 C                                       1.3678184
    33   6 C       34   6 C                                       1.4044204
    34   6 C       35   6 C                                       1.3669367
    31   6 C       36   6 C                                       1.4215269
    35   6 C       36   6 C                                       1.4106389
    28   6 C       37   6 C                                       1.3674921
    36   6 C       37   6 C                                       1.4087456
    25  15 P       38   7 N                                       1.6572400
    38   7 N       39   6 C                                       1.4595702
    38   7 N       40   6 C                                       1.4825083
    40   6 C       41   6 C                                       1.5305387
    40   6 C       42   6 C                                       1.5288757
    40   6 C       43   6 C                                       1.5263969
     1   6 C       44   1 H                                       1.0918598
     1   6 C       45   1 H                                       1.0886710
     1   6 C       46   1 H                                       1.0911719
     4   6 C       47   1 H                                       1.0795042
     5   6 C       48   1 H                                       1.0795423
     7   6 C       49   1 H                                       1.0797893
     8   6 C       50   1 H                                       1.0789559
     9   6 C       51   1 H                                       1.0791343
    10   6 C       52   1 H                                       1.0791584
    15   6 C       53   1 H                                       1.0770618 (min)
    16   6 C       54   1 H                                       1.0792773
    18   6 C       55   1 H                                       1.0798052
    19   6 C       56   1 H                                       1.0790154
    20   6 C       57   1 H                                       1.0792369
    21   6 C       58   1 H                                       1.0791301
    24   6 C       59   1 H                                       1.0899353
    24   6 C       60   1 H                                       1.0928262
    24   6 C       61   1 H                                       1.0896258
    29   6 C       62   1 H                                       1.0798039
    30   6 C       63   1 H                                       1.0795705
    32   6 C       64   1 H                                       1.0797789
    33   6 C       65   1 H                                       1.0792146
    34   6 C       66   1 H                                       1.0792882
    35   6 C       67   1 H                                       1.0801725
    37   6 C       68   1 H                                       1.0783627
    39   6 C       69   1 H                                       1.0912549
    39   6 C       70   1 H                                       1.0894242
    39   6 C       71   1 H                                       1.0869340
    41   6 C       72   1 H                                       1.0871585
    41   6 C       73   1 H                                       1.0853366
    41   6 C       74   1 H                                       1.0864322
    42   6 C       75   1 H                                       1.0859383
    42   6 C       76   1 H                                       1.0874109
    42   6 C       77   1 H                                       1.0884242
    43   6 C       78   1 H                                       1.0883820
    43   6 C       79   1 H                                       1.0868573
    43   6 C       80   1 H                                       1.0870783

 * 6 distinct bonds (by element types)

   Z      Z             #   av. dist./Å        max./Å        min./Å
   1 H    6 C          37     1.0837979     1.0928262     1.0770618
   6 C    6 C          36     1.4070552     1.5305387     1.3647576
   6 C    7 N           6     1.4519601     1.4825083     1.4222177
   7 N   15 P           3     1.6572334     1.6596469     1.6548131
  15 P   16 S           1     2.1393899     2.1393899     2.1393899
  16 S   16 S           1     2.0504894     2.0504894     2.0504894


optimized geometry written to: xtbopt.xyz


           -------------------------------------------------
          | TOTAL ENERGY             -115.633586363376 Eh   |
          | GRADIENT NORM               0.000023942891 Eh/α |
          | HOMO-LUMO GAP               2.372561729304 eV   |
           -------------------------------------------------

------------------------------------------------------------------------
 * finished run on 2024/12/16 at 19:09:01.523     
------------------------------------------------------------------------
 total:
 * wall-time:     0 d,  0 h,  2 min, 31.059 sec
 *  cpu-time:     0 d,  0 h, 19 min, 53.473 sec
 * ratio c/w:     7.901 speedup
 SCF:
 * wall-time:     0 d,  0 h,  0 min,  2.551 sec
 *  cpu-time:     0 d,  0 h,  0 min, 20.275 sec
 * ratio c/w:     7.948 speedup
 ANC optimizer:
 * wall-time:     0 d,  0 h,  2 min, 28.335 sec
 *  cpu-time:     0 d,  0 h, 19 min, 31.867 sec
 * ratio c/w:     7.900 speedup

