91
 energy: -132.636599470215 gnorm: 0.000033977741 xtb: 6.7.1 (edcfbbe)
C           -4.14229468718368        1.47282183238308        0.83156468732586
C           -3.79235656166784        0.22379287376983        0.02208435247102
C           -4.40188620601421        0.31672640207139       -1.37271806385724
N           -2.34768081777490       -0.05032912169114       -0.02131331022940
C           -1.88408494484443       -1.44400783787427        0.17536023612450
C           -2.53390678366723       -2.42028052919353       -0.78531550543595
C           -3.77970944735203       -2.98102371254366       -0.52436854748733
C           -4.35158146680932       -3.86695588264963       -1.42027796635924
C           -3.68077549951101       -4.21831535149593       -2.57948753262942
C           -2.42212080140670       -3.69808534460027       -2.82669339840901
C           -1.85109154956894       -2.80974408306924       -1.93212159214139
C           -2.00256406074606       -1.95765935581944        1.59477746961056
C           -2.51978866509078       -1.22800977192843        2.65279078479360
C           -2.57578881481345       -1.77565576485176        3.92524089118667
C           -2.11148687245233       -3.05708469607549        4.15442326257730
C           -1.58525980755787       -3.79100595757544        3.10306005412748
C           -1.53073675809430       -3.24591292006105        1.83554761646594
P           -1.13248192069856        1.00839785520495       -0.37560319835472
S           -1.93571738274414        2.93208512705960       -0.73035419938063
S           -0.32622358894201        3.85393350802636       -1.60903751580554
C            0.57146718556367        4.48913764777934       -0.20058512207023
C           -0.03538393124813        5.38313015502118        0.66760872532209
C            0.68533112229368        5.86312708017216        1.74666356384155
C            1.99782537029990        5.46106189794975        1.94202324661448
C            2.59600262869355        4.57661211613866        1.05902111289270
C            1.88277717852355        4.08205699783851       -0.01918367981338
N            0.02785427184940        1.17554501387561        0.81503985864985
C           -0.28652171493764        1.99666923087550        1.97890132856825
C            0.82713022051788        0.00946462724475        1.05448014180425
C            0.71197294867299       -0.71662364387901        2.25329396833346
C            1.43304036644973       -1.86138044227057        2.43368643851953
C            2.26274876484273       -2.36368571621625        1.41138861080034
C            2.94739479252959       -3.58884933521278        1.54809496717508
C            3.74049658503014       -4.06119222951487        0.54051590787363
C            3.87544780770155       -3.33026875792653       -0.64961393102363
C            3.23260340122547       -2.13416241045417       -0.80952584611414
C            2.41896111691094       -1.61057945585852        0.21809216191691
C            1.72722394607215       -0.37350226063266        0.08388482910574
C            2.01726543247690        0.50982523496016       -1.05901031880606
C            1.03565167570621        0.88369706567889       -1.94903515512157
C            1.36174684984138        1.61846631445298       -3.10601072641470
C            2.64760808647469        2.00935690019702       -3.33660133538114
C            3.66757732261092        1.73369754853054       -2.40235504896854
C            4.98558420900904        2.19763610816292       -2.58985411685593
C            5.94989473008097        1.95546614715183       -1.65218706148306
C            5.62932299333570        1.24963767955779       -0.48328456365025
C            4.36283392989274        0.77551319800624       -0.27852292296557
C            3.34967471560310        0.98582699300810       -1.23828163604422
N           -0.31097524824281        0.46549071686895       -1.71595897696117
C           -1.14930040266037        0.27007728262931       -2.89669855403226
H           -5.13598772877761        1.35943035163592        1.25820162741010
H           -4.15328228381512        2.36042732014460        0.20378084550533
H           -3.43961776882320        1.63726523824926        1.64572657458605
H           -4.21838564467276       -0.64312824644697        0.53142041122391
H           -5.47166142466692        0.48568708549034       -1.28510121709258
H           -4.24956111115359       -0.60453704461422       -1.92991958380646
H           -3.96898211940329        1.14961259697721       -1.92303057532880
H           -0.81133894800125       -1.42710977018946       -0.06897804352785
H           -4.30003716374819       -2.74860780545124        0.39300625448842
H           -5.32047734978110       -4.29054319236367       -1.20594997938417
H           -4.12831907415496       -4.90941787955186       -3.27643734948090
H           -1.87828350684986       -3.99055727983095       -3.71183551425439
H           -0.85399990264577       -2.43372226808986       -2.11370288526810
H           -2.88213191840577       -0.22423112711556        2.50050263364570
H           -2.98619364896492       -1.19386550996377        4.73707092975210
H           -2.15828797671935       -3.48206721469703        5.14493016512192
H           -1.21706289569738       -4.79128587031611        3.27114760164321
H           -1.11707741225098       -3.81900102127826        1.01859068168732
H           -1.05642423101858        5.69356367484484        0.50064617090160
H            0.22275447945665        6.55957319983264        2.42853755814933
H            2.55653098912086        5.84446845027478        2.78164370320616
H            3.61941321358450        4.26673364523966        1.20423588480571
H            2.33825532167928        3.39722915314064       -0.71634084053916
H            0.64639864881642        2.21680047572448        2.49674406885145
H           -0.97484297680410        1.51372930496819        2.67630847363011
H           -0.72904461819315        2.93747913280503        1.65440926686989
H            0.05734546181953       -0.37136473777441        3.03544860274750
H            1.35289261266335       -2.40847522498568        3.36022987727770
H            2.82484893789588       -4.14732973117091        2.46402667637381
H            4.26171129069134       -4.99969271931782        0.64950443966315
H            4.49145132906202       -3.72165606916172       -1.44468914558527
H            3.33515047876336       -1.58429561259016       -1.73267153477725
H            0.59287858210506        1.88353592737931       -3.81238723385260
H            2.89329725271142        2.56079140695977       -4.23101934807978
H            5.21285236807449        2.75602262178305       -3.48560125138847
H            6.95720217891756        2.31318061573813       -1.79903048119326
H            6.39254310001141        1.08386365740798        0.26172666298334
H            4.12756414313613        0.24547265523268        0.63142720954662
H           -0.57780077669964       -0.28296268630240       -3.64031586369291
H           -1.48809871358508        1.21179709117346       -3.33771531841165
H           -2.02191691182857       -0.31775056698919       -2.61808054469319
