72
 energy: -119.987385615103 gnorm: 0.143145315634 xtb: 6.7.1 (edcfbbe)
C           -1.09484200000000       -4.16623100000000        0.64611100000000
C            0.41765300000000       -4.12390900000000        0.87349700000000
C            0.74669900000000       -4.21802100000000        2.36425700000000
N            1.01717800000000       -2.94192500000000        0.24037300000000
C            2.05803400000000       -3.22700600000000       -0.76015200000000
C            3.27371700000000       -3.96127800000000       -0.18673200000000
C            1.49364400000000       -3.96994500000000       -1.97704500000000
P            0.88850700000000       -1.42037100000000        0.85351900000000
S            2.38024500000000       -0.97616800000000        2.25919500000000
S            3.81604900000000       -0.10117700000000        1.07714100000000
C            3.14320500000000        1.52299800000000        0.69868300000000
C            2.53428500000000        2.27978300000000        1.71429800000000
C            1.96319800000000        3.52442300000000        1.44276900000000
C            1.99810600000000        4.03597400000000        0.15350400000000
C            2.62721900000000        3.31520200000000       -0.86008400000000
C            3.21602200000000        2.05893300000000       -0.60388100000000
C            3.89881200000000        1.33069400000000       -1.73754200000000
F            3.95536900000000        2.06501100000000       -2.89010500000000
F            3.28423100000000        0.16561100000000       -2.09316500000000
F            5.19625600000000        1.00997900000000       -1.46544600000000
O           -0.57742300000000       -1.22818600000000        1.50959100000000
C           -0.98592300000000        0.04781200000000        1.80872800000000
C           -1.07587500000000        0.35426200000000        3.16402900000000
C           -1.48361500000000        1.61975700000000        3.55446600000000
C           -1.77465200000000        2.59494200000000        2.59806300000000
C           -2.12564300000000        3.88677000000000        3.02419900000000
C           -2.36972100000000        4.90388700000000        2.10556700000000
C           -2.25290200000000        4.64354600000000        0.74934800000000
C           -1.91192700000000        3.35963400000000        0.31443700000000
C           -1.69554300000000        2.28283900000000        1.21126900000000
C           -1.34753100000000        0.94572900000000        0.78415900000000
C           -1.35955500000000        0.49259000000000       -0.59037800000000
C           -0.22029500000000       -0.13984800000000       -1.12958900000000
C           -0.09384400000000       -0.46001500000000       -2.47965300000000
C           -1.14461500000000       -0.21915500000000       -3.34789600000000
C           -2.34094800000000        0.31893900000000       -2.87066200000000
C           -3.41009000000000        0.50115100000000       -3.76356700000000
C           -4.63817300000000        0.98515500000000       -3.32431000000000
C           -4.81565300000000        1.27838000000000       -1.98130700000000
C           -3.75585800000000        1.11023400000000       -1.08567900000000
C           -2.47425500000000        0.66104700000000       -1.49522600000000
O            0.89992000000000       -0.36454500000000       -0.37244000000000
H           -1.62909100000000       -3.39672000000000        1.20884200000000
H           -1.33973400000000       -4.04768800000000       -0.41564400000000
H           -1.49832300000000       -5.13392000000000        0.96689100000000
H            0.80686300000000       -5.04196900000000        0.41779700000000
H            0.27955800000000       -3.41576300000000        2.94268600000000
H            1.82728900000000       -4.17748200000000        2.52797400000000
H            0.39278000000000       -5.16855800000000        2.77531000000000
H            2.42998800000000       -2.26909800000000       -1.14413200000000
H            4.04709400000000       -4.06456200000000       -0.95524000000000
H            3.71481700000000       -3.41251200000000        0.64918000000000
H            3.02728700000000       -4.96959200000000        0.16192500000000
H            1.25727700000000       -5.01518900000000       -1.75573600000000
H            0.58252900000000       -3.48844100000000       -2.34450500000000
H            2.21957200000000       -3.96389100000000       -2.79723900000000
H            2.48528700000000        1.90603700000000        2.73513700000000
H            1.47312900000000        4.08078600000000        2.23882100000000
H            1.53929200000000        4.99854800000000       -0.06172000000000
H            2.64529200000000        3.73437400000000       -1.86522500000000
H           -0.82977500000000       -0.39401100000000        3.91301500000000
H           -1.54857600000000        1.84462100000000        4.61718500000000
H           -2.20294800000000        4.11760900000000        4.08531700000000
H           -2.63735800000000        5.89869000000000        2.45229300000000
H           -2.41934600000000        5.43470600000000        0.02200800000000
H           -1.79989200000000        3.21449200000000       -0.75824300000000
H            0.83213300000000       -0.89173500000000       -2.85251300000000
H           -1.02703500000000       -0.47819200000000       -4.39678500000000
H           -3.29653100000000        0.25141600000000       -4.81569200000000
H           -5.45818500000000        1.11331900000000       -4.02601600000000
H           -5.77884200000000        1.63170200000000       -1.62046700000000
H           -3.95401800000000        1.32552100000000       -0.03756800000000
72
 energy: -120.006025211283 gnorm: 0.071076167474 xtb: 6.7.1 (edcfbbe)
C           -1.10737475032478       -4.16839701100806        0.64721667931732
C            0.39992308297514       -4.13464550594161        0.87925270873815
C            0.74729919242833       -4.20951979454595        2.36474613144585
N            0.99538722820413       -2.96663462154525        0.21899841153782
C            2.05966435492620       -3.22142982797613       -0.77008118775080
C            3.26637480970445       -3.95554955678166       -0.18208786640509
C            1.48803453090135       -3.96829007113168       -1.97613425765256
P            0.86312935924554       -1.45246552020064        0.83415726192296
S            2.35237446503313       -0.86525799372944        2.23079451300183
S            3.82727999911463       -0.08345049018234        1.03371205541363
C            3.13256748070598        1.53414230913277        0.69153452495913
C            2.52491786311299        2.27154441819080        1.70475484620215
C            1.95664320369122        3.50723356513700        1.43571717358397
C            1.99776711721924        4.02222093814242        0.15058571499786
C            2.62456823232516        3.30888739248688       -0.85893947499140
C            3.20322872236007        2.06568713321645       -0.60181522108661
C            3.89239311791361        1.33516373509124       -1.72506864375574
F            3.94159481860288        2.05902859374759       -2.86601883253901
F            3.27720998711403        0.17416263664415       -2.06091807260900
F            5.17340193127167        1.01042701518932       -1.44031313867841
O           -0.58805756608802       -1.25537187330482        1.48782660359609
C           -0.99043216580422        0.04651543009582        1.80001439524596
C           -1.06646581914481        0.35914372990474        3.15993057849709
C           -1.47908591232409        1.60751905499990        3.55395559054005
C           -1.77248709327841        2.59281821484592        2.59763327629327
C           -2.12442728727766        3.88936330407095        3.01675251440734
C           -2.36630115018037        4.88800343863667        2.10280861891293
C           -2.24294181927321        4.61569355387109        0.74126617544471
C           -1.91295890585613        3.34676165993227        0.30502204654628
C           -1.69627233042237        2.28188190875674        1.20697910319626
C           -1.35257780943977        0.94606092236178        0.79403090493040
C           -1.35063522299782        0.50347182688352       -0.60372525682789
C           -0.21559979409820       -0.11986362563307       -1.12746740357270
C           -0.09506102618581       -0.46264478848902       -2.47621801276545
C           -1.13183470617594       -0.22035410134329       -3.34194996054082
C           -2.33810107826944        0.32046696686914       -2.86991565317144
C           -3.41471174806722        0.50282299183161       -3.75780234029454
C           -4.62444227773715        0.98269907576919       -3.31513222287565
C           -4.79132263702889        1.27450386536013       -1.96215844918691
C           -3.74412274499857        1.11921377451885       -1.07406874473328
C           -2.47193962220534        0.66965941508242       -1.49276110481197
O            0.91618528546259       -0.36366739555529       -0.34684964669918
H           -1.62197364277264       -3.39019072202389        1.20730706844146
H           -1.33602955100122       -4.04528455394567       -0.41122838444381
H           -1.49974459608030       -5.13265987687167        0.96880749931959
H            0.82132596746377       -5.02314823869890        0.40189411982495
H            0.27893583134991       -3.40138138133909        2.92720953559771
H            1.82533768094216       -4.16731555240216        2.52042616973186
H            0.39015559464684       -5.15460786718662        2.77271265281192
H            2.41356764817584       -2.24577222988818       -1.12783694792893
H            4.03238103246595       -4.05250960309033       -0.95039531578349
H            3.70137212897838       -3.40648450006795        0.65242830714065
H            3.01573248517631       -4.95961072127109        0.15827030036251
H            1.25904231060912       -5.00802422552602       -1.74813366639455
H            0.58016355041834       -3.48567765842247       -2.33623339281074
H            2.21967442872872       -3.95824620548292       -2.78268966415178
H            2.49056112713887        1.88956269115193        2.71702909921722
H            1.48533718821725        4.06626251890876        2.23304542859403
H            1.54975777524684        4.98260068312567       -0.06417092411507
H            2.66053931882641        3.72299421476831       -1.85775686938391
H           -0.81992519889631       -0.39354309863992        3.89561988737164
H           -1.55271838651573        1.83535123011202        4.60861263400168
H           -2.19827558607460        4.10944971341045        4.07353138379899
H           -2.63501006335128        5.87969736982083        2.44298350544025
H           -2.40823745000731        5.40360417425180        0.01855143708677
H           -1.80827113053850        3.18771203747364       -0.75988173568946
H            0.82968415349791       -0.89182190801238       -2.83463412876703
H           -1.02024336211792       -0.47117388743133       -4.38753976639735
H           -3.29376703994035        0.25050059703126       -4.80249772234365
H           -5.44327183379189        1.11402708850672       -4.01043883109432
H           -5.75043141535754        1.62321343311676       -1.60308483583943
H           -3.92846128057119        1.33492178522137       -0.03017118138043
72
 energy: -120.012652354464 gnorm: 0.023654074534 xtb: 6.7.1 (edcfbbe)
C           -1.12017496206442       -4.17183516198572        0.65200620547700
C            0.38423912971233       -4.13741530018811        0.88145217139916
C            0.74259648212975       -4.19432652787622        2.36193299610154
N            0.97096017934715       -2.97359034688181        0.19983545006507
C            2.05584734092035       -3.20959229810565       -0.77703304443386
C            3.25635522439795       -3.94085534147131       -0.17962570798895
C            1.48944713701000       -3.95898851937561       -1.98032179008724
P            0.84199983311897       -1.46588905468283        0.81558694764783
S            2.31679046436896       -0.84918259834902        2.23040250183411
S            3.75493429773142       -0.08809174664373        1.00171925789263
C            3.12390841743999        1.55261284175812        0.68033862333541
C            2.51987687358798        2.27300214366225        1.69518015003352
C            1.95172947923216        3.50233005687594        1.42797646832518
C            1.99368474820038        4.02056956690630        0.14491507796363
C            2.62141934262794        3.31583860087040       -0.86500253557379
C            3.19288301385265        2.08060334098345       -0.60607395373462
C            3.88487569422237        1.33616294332628       -1.71582970216642
F            3.93253400871020        2.04013797175108       -2.84922221383554
F            3.26471307334361        0.17711857464040       -2.02407245984602
F            5.14753712014475        1.00507389911664       -1.41107934825999
O           -0.59145635445151       -1.28198768746231        1.46377102840028
C           -0.99265990132562        0.04138519982182        1.79025263711225
C           -1.05714316493232        0.35333087783238        3.15493171509601
C           -1.47044229550726        1.58983266104123        3.55090824956752
C           -1.76677343559387        2.58314973292195        2.59497700600031
C           -2.12099231054215        3.88529617885611        3.00587081686132
C           -2.35989003570707        4.86855797107415        2.09177090370069
C           -2.23428107912770        4.58312407103471        0.72466036168693
C           -1.91143133970160        3.32566897291111        0.29122935165848
C           -1.69054821596866        2.27317657417901        1.20376080706287
C           -1.34984331824669        0.94030070492799        0.80369878847433
C           -1.33373630705984        0.50967944257602       -0.61562561953227
C           -0.20571650710673       -0.10060398033082       -1.12586390119002
C           -0.08491163594051       -0.46095100607412       -2.47339816512325
C           -1.11337862596509       -0.22075291486884       -3.33501577655533
C           -2.32652616455562        0.32320029922861       -2.86631014752735
C           -3.41309792988337        0.50513125092340       -3.74735362130594
C           -4.60831783143825        0.98231667911359       -3.29715684706926
C           -4.76281201891309        1.27567131025866       -1.93460152726716
C           -3.72308325116975        1.12925586368271       -1.05625135592484
C           -2.45905675841656        0.67622567345281       -1.48939760878764
O            0.93604206219106       -0.35023244492994       -0.31799908417625
H           -1.61897363752255       -3.38600141678271        1.20922154193282
H           -1.33850685212347       -4.04622011311347       -0.40407019846831
H           -1.51025725646277       -5.13126776987191        0.97528548572497
H            0.82725580820547       -5.00614786458736        0.38934000386394
H            0.27689578368380       -3.37535158630107        2.90634199186787
H            1.81912958915659       -4.15072323352850        2.50692749078456
H            0.38253199237489       -5.13175606699841        2.77735083012380
H            2.39199380250687       -2.21955450792841       -1.11029898756863
H            4.02143512624988       -4.03458790291362       -0.94443237873834
H            3.68065898715049       -3.39042673254585        0.65650683115305
H            2.99766633799212       -4.94105578756494        0.15469418782656
H            1.26411887607651       -4.99319111217281       -1.73968445958925
H            0.58204966735137       -3.47809431805412       -2.33388535869866
H            2.22251827837762       -3.95245446084541       -2.78037514088160
H            2.48816585236322        1.87203615776867        2.69661538334009
H            1.48482871043282        4.05605419385878        2.22563585578768
H            1.55101358857496        4.97832554497041       -0.06822782088936
H            2.67043327206564        3.72388613108857       -1.86060726802235
H           -0.79929820204408       -0.40481616772170        3.87602806746446
H           -1.55104446653360        1.82602767820445        4.59895649554644
H           -2.19188657266533        4.09305298315530        4.06175565220676
H           -2.63066053485573        5.86003535370371        2.42001132889464
H           -2.39593025490714        5.37091658557109        0.00611630645796
H           -1.81359438965120        3.14622311466072       -0.76723773040043
H            0.84035998368139       -0.89313185285646       -2.81424024865653
H           -1.01489960145948       -0.46831721956978       -4.37912093711713
H           -3.28352471946218        0.24823558590222       -4.78681069413682
H           -5.43138290449355        1.11681879177853       -3.98157554646028
H           -5.72077127004519        1.61805390969808       -1.57667818346001
H           -3.88642647268989        1.34897360849519       -0.01348560519883
72
 energy: -120.014589570031 gnorm: 0.016521948356 xtb: 6.7.1 (edcfbbe)
C           -1.13139012620785       -4.17488934721680        0.65421258926428
C            0.37426289816620       -4.13560657190365        0.87602634200714
C            0.73714296581767       -4.17355160370014        2.35513626649531
N            0.95215659656950       -2.96824114827468        0.18936014424157
C            2.04541014997413       -3.19544700803066       -0.78112363044159
C            3.24472060561776       -3.91913502962194       -0.17597318876530
C            1.49168927328443       -3.94617454021137       -1.98873538776542
P            0.82525937483178       -1.46558252435159        0.81043901813823
S            2.29717485371304       -0.81448504318330        2.21188375174805
S            3.75961233106836       -0.08439263480544        0.99118237471924
C            3.09630321423518        1.54223268618552        0.67260088227105
C            2.49844450421746        2.26465365303365        1.69117842921343
C            1.94015640908694        3.50080130072179        1.42586533737607
C            1.98673810021934        4.02405652049578        0.14437075514871
C            2.61699860310198        3.32223085675302       -0.86751099984536
C            3.17747740145067        2.08026766204424       -0.60916951277484
C            3.87402210257537        1.32681195320924       -1.71053429858959
F            3.93188873408065        2.01767762416996       -2.84651156136214
F            3.24760199232301        0.16771965151105       -2.00773398919572
F            5.12880246449755        0.99015728170424       -1.38782211221273
O           -0.60184635468265       -1.29993868200151        1.45194410326749
C           -0.99894615680593        0.02845971793060        1.78771716862830
C           -1.05414466218617        0.33706950865754        3.15361080984281
C           -1.46151172993568        1.57613832974071        3.54818431547265
C           -1.75888829001547        2.56988831363595        2.59132616315961
C           -2.11449762700989        3.87480496162640        2.99592170750599
C           -2.35220497797769        4.85316980884816        2.07509459758769
C           -2.22626591195347        4.56229454024751        0.70699746548589
C           -1.90335229939816        3.30436846830969        0.27999438583909
C           -1.68134619604360        2.25964546671161        1.20281330878039
C           -1.34257004446011        0.92932488184431        0.80640926903947
C           -1.31882277246397        0.50626452191071       -0.61701414347933
C           -0.19330063103707       -0.09720219894224       -1.12529697568317
C           -0.06625616966899       -0.45908657268199       -2.47184488734753
C           -1.09767266482494       -0.22097481835049       -3.33078744280369
C           -2.31119320417317        0.32420251413119       -2.86074827457012
C           -3.40413975520468        0.50638990285421       -3.73557913794329
C           -4.59684489626076        0.98338525912963       -3.27584296472513
C           -4.74455494084252        1.27924798762070       -1.91096375249662
C           -3.70041372822026        1.13465791124474       -1.04001800300763
C           -2.44153921128910        0.67698945715017       -1.48609954435406
O            0.94578821139276       -0.34210048371478       -0.30091390412586
H           -1.62685528067443       -3.38625609210855        1.21049876586223
H           -1.35416956384941       -4.05346979760652       -0.40160206214811
H           -1.52244685100560       -5.13209634223123        0.98402263672471
H            0.81956733443135       -5.00372037621262        0.38644977128607
H            0.27648775160876       -3.34308602217186        2.88727504690531
H            1.81436025188782       -4.13020335648515        2.49476862895614
H            0.37466018328377       -5.10260661436735        2.78787087968392
H            2.37441651660097       -2.20073982296096       -1.10480203463041
H            4.01618540953668       -4.00951501031136       -0.93510642771140
H            3.65899285919118       -3.36660319913853        0.66409000319672
H            2.98457345270828       -4.92020066175506        0.15554531058682
H            1.26854429204099       -4.98001571240428       -1.74243203350638
H            0.58329781957026       -3.46955844862791       -2.34602409266557
H            2.22806856400894       -3.94137582073064       -2.78606162597387
H            2.47335452590796        1.85944929240681        2.69104053078677
H            1.47429247401897        4.05454412516298        2.22436672983986
H            1.54541230088240        4.98308518447439       -0.06741445704192
H            2.67672044466564        3.73274766254396       -1.86245771567065
H           -0.78649989843271       -0.42430641416920        3.86836883675143
H           -1.54133703213156        1.81898680850955        4.59518753432063
H           -2.18662408494684        4.08036150922360        4.05274762102497
H           -2.62557237541982        5.84697880532372        2.39317903610550
H           -2.38954594383129        5.34888041641625       -0.01282287295611
H           -1.80932361915450        3.10919462053705       -0.77667850489648
H            0.86139704746572       -0.89344447809520       -2.80479619272100
H           -1.00762065662719       -0.46993507253759       -4.37579027727573
H           -3.27470988496427        0.24739940726128       -4.77505582914644
H           -5.42680780184434        1.11946115292975       -3.95120569786366
H           -5.70184866602312        1.62128288657866       -1.55031405351877
H           -3.84691900446661        1.35865883611456        0.00510707195115
72
 energy: -120.015968037459 gnorm: 0.012339405211 xtb: 6.7.1 (edcfbbe)
C           -1.14579597157090       -4.17643869664515        0.65382005720104
C            0.36187631664462       -4.12802749346084        0.86666260969033
C            0.73004907196520       -4.14508349030807        2.34468453235195
N            0.93235508429795       -2.95855799582144        0.17486789913291
C            2.03204477100309       -3.17782020212528       -0.78859431119442
C            3.23030736617012       -3.89081588675956       -0.17156219680329
C            1.49228068695724       -3.93060298910502       -2.00059242686843
P            0.81825914661894       -1.46162415145262        0.80731061566733
S            2.26940162802479       -0.83451404651556        2.23481803796611
S            3.70795579949421       -0.09709479264906        0.98644632236787
C            3.06939752032840        1.53920322913508        0.66783361143552
C            2.47050206552076        2.26431445985832        1.68624747154184
C            1.91921103499630        3.50425412460567        1.41918287311472
C            1.97654239189708        4.03184465522335        0.13959357043914
C            2.60992738319000        3.33061822023510       -0.87235080793502
C            3.15993347264540        2.08204537369145       -0.61225948787126
C            3.85773772665756        1.31503750912594       -1.70416885047994
F            3.92853925633126        1.98919614544655       -2.84854878686590
F            3.22335826339386        0.15450933183955       -1.98970879231454
F            5.10730193268839        0.97204651956887       -1.36456470879814
O           -0.60455308452154       -1.31643367919689        1.44327359130718
C           -0.99704816708388        0.01303328088966        1.78891419232822
C           -1.04688057958816        0.31795957219340        3.15470681056890
C           -1.44827708189919        1.56232693005698        3.54549625252865
C           -1.74520111681680        2.55459268615342        2.58659060482930
C           -2.10391756805230        3.86139490337779        2.98353623962017
C           -2.34111875976660        4.83455153525118        2.05419521789708
C           -2.21344229396297        4.54015884198986        0.68672955777479
C           -1.88601522372426        3.28042424833491        0.26783174011305
C           -1.66444555188623        2.24382898689316        1.20132255668215
C           -1.32686163336911        0.91552321447928        0.80763987495020
C           -1.29857364474408        0.49799958442343       -0.61451779663875
C           -0.17254122808155       -0.09800117212277       -1.12580474539861
C           -0.04102380375355       -0.45838106509232       -2.47140436134067
C           -1.07944374157601       -0.22311658108389       -3.32587169513666
C           -2.29229863871538        0.32129387660111       -2.85224696331937
C           -3.39115826139271        0.50625714221551       -3.71976109227633
C           -4.58152174913253        0.98395014245381       -3.24883835139543
C           -4.72309332284393        1.28197264865823       -1.88357652435261
C           -3.67274234409361        1.13478248861788       -1.02022540561667
C           -2.41962848546487        0.67178259773408       -1.47970935699133
O            0.96093648716668       -0.33451612345051       -0.28619993110785
H           -1.64277104499664       -3.38735326366128        1.20886137490503
H           -1.37833530725150       -4.06408261461716       -0.40185909732991
H           -1.53296250936075       -5.13313518035661        0.99366950692878
H            0.80655976889452       -4.99928409260946        0.38364199311607
H            0.27700900921246       -3.30054651868915        2.86295174726366
H            1.80845437229119       -4.10476962584859        2.47978434013117
H            0.36307355349390       -5.06266937222075        2.79998334340996
H            2.35548413899910       -2.18038303455467       -1.10678720197293
H            4.01194113412565       -3.97547596719279       -0.92180376420514
H            3.63065713713732       -3.33433467646321        0.67359473618312
H            2.97305719224998       -4.89403108701086        0.15795760293493
H            1.27143649935146       -4.96545683987744       -1.75285805644195
H            0.58399064974451       -3.45876021155067       -2.36678067630325
H            2.23526661494477       -3.92455751233229       -2.79259773340727
H            2.43991147120770        1.85375776798472        2.68393354655316
H            1.45434503351552        4.05982830549038        2.21807085177457
H            1.54203686797675        4.99548442554397       -0.07061164988787
H            2.68332065507580        3.74447585412299       -1.86642771226202
H           -0.77677587890223       -0.44684306122568        3.86543017696830
H           -1.52466141416003        1.81131261255446        4.59229259342679
H           -2.18021740790876        4.06947574328405        4.04029768205236
H           -2.61799062023763        5.83089447040124        2.36183298608282
H           -2.38105470677631        5.32354372408699       -0.03639791865498
H           -1.79184646699437        3.07063937281371       -0.78662692782287
H            0.88948354410890       -0.89003569870881       -2.80146140799133
H           -0.99590507971108       -0.47171183913662       -4.37242911291447
H           -3.26652627544900        0.24870362034542       -4.76081042950990
H           -5.41904328570068        1.12191462779112       -3.91481068443253
H           -5.67796089000113        1.62772872767517       -1.51849665791258
H           -3.80231290883170        1.36179746069769        0.02725890251341
72
 energy: -120.016644504435 gnorm: 0.009096226601 xtb: 6.7.1 (edcfbbe)
C           -1.15814691087306       -4.17891061498199        0.65211736953404
C            0.35065314132539       -4.12034637460641        0.85906663648733
C            0.72267558176742       -4.12143578600125        2.33634088234813
N            0.91386147963860       -2.95171580265486        0.16096973935369
C            2.01876076508174       -3.16535639687018       -0.79626108346481
C            3.21929038114564       -3.86554586518539       -0.16956974799342
C            1.49349202394006       -3.92039301489675       -2.01284358406153
P            0.81206376200402       -1.46115859834357        0.80922197959077
S            2.26381562292401       -0.85078119084397        2.23654185567298
S            3.70300423761358       -0.08870699735298        1.00464315512370
C            3.04493122368510        1.53567215246096        0.67107450128859
C            2.43798465461343        2.26411161701213        1.68395147470286
C            1.89498853868886        3.50673057998187        1.41218521392902
C            1.96700041326315        4.03553593525753        0.13386792264161
C            2.60243932416894        3.33007120420285       -0.87414078104226
C            3.14311231757727        2.07733983269266       -0.61020549968126
C            3.84157189166584        1.30298089664376       -1.69631514962670
F            3.92218874337373        1.96951148837407       -2.84609481174338
F            3.20264846475305        0.14278484363687       -1.98164837624514