      -----------------------------------------------------------      
     |                   =====================                   |     
     |                           x T B                           |     
     |                   =====================                   |     
     |                         S. Grimme                         |     
     |          Mulliken Center for Theoretical Chemistry        |     
     |                    University of Bonn                     |     
      -----------------------------------------------------------      

   * xtb version 6.7.1 (edcfbbe) compiled by 'conda@3ef47c1a292c' on 2024-11-25

   xtb is free software: you can redistribute it and/or modify it under
   the terms of the GNU Lesser General Public License as published by
   the Free Software Foundation, either version 3 of the License, or
   (at your option) any later version.
   
   xtb is distributed in the hope that it will be useful,
   but WITHOUT ANY WARRANTY; without even the implied warranty of
   MERCHANTABILITY or FITNESS FOR A PARTICULAR PURPOSE.  See the
   GNU Lesser General Public License for more details.
   
   Cite this work as:
   * C. Bannwarth, E. Caldeweyher, S. Ehlert, A. Hansen, P. Pracht,
     J. Seibert, S. Spicher, S. Grimme, WIREs Comput. Mol. Sci., 2020, 11,
     e01493. DOI: 10.1002/wcms.1493
   
   for GFN2-xTB:
   * C. Bannwarth, S. Ehlert and S. Grimme., J. Chem. Theory Comput., 2019,
     15, 1652-1671. DOI: 10.1021/acs.jctc.8b01176
   for GFN1-xTB:
   * S. Grimme, C. Bannwarth, P. Shushkov, J. Chem. Theory Comput., 2017,
     13, 1989-2009. DOI: 10.1021/acs.jctc.7b00118
   for GFN0-xTB:
   * P. Pracht, E. Caldeweyher, S. Ehlert, S. Grimme, ChemRxiv, 2019, preprint.
     DOI: 10.26434/chemrxiv.8326202.v1
   for GFN-FF:
   * S. Spicher and S. Grimme, Angew. Chem. Int. Ed., 2020, 59, 15665-15673.
     DOI: 10.1002/anie.202004239
   
   for ALPB and GBSA implicit solvation:
   * S. Ehlert, M. Stahn, S. Spicher, S. Grimme, J. Chem. Theory Comput.,
     2021, 17, 4250-4261. DOI: 10.1021/acs.jctc.1c00471
   
   for ddCOSMO and CPCM-X implicit solvation:
   * M. Stahn, S. Ehlert, S. Grimme, J. Phys. Chem. A,
     2023, XX, XXXX-XXXX. DOI: 10.1021/acs.jpca.3c04382
   
   for DFT-D4:
   * E. Caldeweyher, C. Bannwarth and S. Grimme, J. Chem. Phys., 2017,
     147, 034112. DOI: 10.1063/1.4993215
   * E. Caldeweyher, S. Ehlert, A. Hansen, H. Neugebauer, S. Spicher,
     C. Bannwarth and S. Grimme, J. Chem. Phys., 2019, 150, 154122.
     DOI: 10.1063/1.5090222
   * E. Caldeweyher, J.-M. Mewes, S. Ehlert and S. Grimme, Phys. Chem. Chem. Phys.
     2020, 22, 8499-8512. DOI: 10.1039/D0CP00502A
   
   for sTDA-xTB:
   * S. Grimme and C. Bannwarth, J. Chem. Phys., 2016, 145, 054103.
     DOI: 10.1063/1.4959605
   
   in the mass-spec context:
   * V. Asgeirsson, C. Bauer and S. Grimme, Chem. Sci., 2017, 8, 4879.
     DOI: 10.1039/c7sc00601b
   * J. Koopman and S. Grimme, ACS Omega 2019, 4, 12, 15120-15133.
     DOI: 10.1021/acsomega.9b02011
   
   for metadynamics refer to:
   * S. Grimme, J. Chem. Theory Comput., 2019, 155, 2847-2862
     DOI: 10.1021/acs.jctc.9b00143
   
   for SPH calculations refer to:
   * S. Spicher and S. Grimme, J. Chem. Theory Comput., 2021, 17, 1701-1714
     DOI: 10.1021/acs.jctc.0c01306
   
   for ONIOM refer to:
   * C. Plett, A. Katbashev, S. Ehlert, S. Grimme, M. Bursch,
     Phys. Chem. Chem. Phys., 2023, 25, 17860-17868. DOI: 10.1039/D3CP02178E
   
   for DIPRO refer to:
   * J. Kohn, N. Gildemeister, S. Grimme, D. Fazzi, A. Hansen,
     J. Chem. Phys., 2023, just accepted.
   
   for PTB refer to:
   * S. Grimme, M. Mueller, A. Hansen, J. Chem. Phys., 2023, 158, 124111.
     DOI: 10.1063/5.0137838
   
   with help from (in alphabetical order)
   P. Atkinson, C. Bannwarth, F. Bohle, G. Brandenburg, E. Caldeweyher
   M. Checinski, S. Dohm, S. Ehlert, S. Ehrlich, I. Gerasimov, C. Hölzer
   A. Katbashev, J. Kohn, J. Koopman, C. Lavigne, S. Lehtola, F. März, M. Müller,
   F. Musil, H. Neugebauer, J. Pisarek, C. Plett, P. Pracht, F. Pultar,
   J. Seibert, P. Shushkov, S. Spicher, M. Stahn, M. Steiner, T. Strunk,
   J. Stückrath, T. Rose, and J. Unsleber
   
 * started run on 2024/12/16 at 19:54:15.338     
   ID    Z sym.   atoms
    1    6 C      1-3, 5-7, 11-16, 18-37
    2    7 N      4
    3   15 P      8
    4   34 Se     9
    5   16 S      10
    6    8 O      17, 38
    7    1 H      39-69

           -------------------------------------------------
          |                Calculation Setup                |
           -------------------------------------------------

          program call               : xtb --gfn2 --opt extreme -P 8 --charge 1 molecule.xyz
          hostname                   : node20
          coordinate file            : molecule.xyz
          omp threads                :                     8


           -------------------------------------------------
          |                 G F N 2 - x T B                 |
           -------------------------------------------------

        Reference                      10.1021/acs.jctc.8b01176
      * Hamiltonian:
        H0-scaling (s, p, d)           1.850000    2.230000    2.230000
        zeta-weighting                 0.500000
      * Dispersion:
        s8                             2.700000
        a1                             0.520000
        a2                             5.000000
        s9                             5.000000
      * Repulsion:
        kExp                           1.500000    1.000000
        rExp                           1.000000
      * Coulomb:
        alpha                          2.000000
        third order                    shell-resolved
        anisotropic                    true
        a3                             3.000000
        a5                             4.000000
        cn-shift                       1.200000
        cn-exp                         4.000000
        max-rad                        5.000000


          ...................................................
          :                      SETUP                      :
          :.................................................:
          :  # basis functions                 201          :
          :  # atomic orbitals                 198          :
          :  # shells                          110          :
          :  # electrons                       192          :
          :  max. iterations                   250          :
          :  Hamiltonian                  GFN2-xTB          :
          :  restarted?                      false          :
          :  GBSA solvation                  false          :
          :  PC potential                    false          :
          :  electronic temp.          300.0000000     K    :
          :  accuracy                    1.0000000          :
          :  -> integral cutoff          0.2500000E+02      :
          :  -> integral neglect         0.1000000E-07      :
          :  -> SCF convergence          0.1000000E-05 Eh   :
          :  -> wf. convergence          0.1000000E-03 e    :
          :  Broyden damping             0.4000000          :
          :  net charge                          1          :
          :  unpaired electrons                  0          :
          ...................................................

 iter      E             dE          RMSdq      gap      omega  full diag
   1   -105.4527681 -0.105453E+03  0.527E+00    2.26       0.0  T
   2   -105.5971626 -0.144395E+00  0.322E+00    2.56       1.0  T
   3   -105.6096487 -0.124861E-01  0.134E+00    2.60       1.0  T
   4   -105.6177748 -0.812614E-02  0.524E-01    2.50       1.0  T
   5   -105.6187415 -0.966620E-03  0.319E-01    2.54       1.0  T
   6   -105.6239480 -0.520653E-02  0.145E-01    2.53       1.0  T
   7   -105.6245238 -0.575839E-03  0.737E-02    2.52       1.0  T
   8   -105.6247553 -0.231418E-03  0.313E-02    2.53       1.0  T
   9   -105.6247662 -0.109034E-04  0.184E-02    2.53       1.0  T
  10   -105.6247660  0.117027E-06  0.925E-03    2.53       1.3  T
  11   -105.6247687 -0.264341E-05  0.513E-03    2.53       2.3  T
  12   -105.6247688 -0.105702E-06  0.293E-03    2.53       4.1  T
  13   -105.6247688 -0.365449E-07  0.171E-03    2.53       7.0  T
  14   -105.6247689 -0.523659E-07  0.810E-04    2.53      14.9  T
  15   -105.6247689 -0.139775E-07  0.354E-04    2.53      34.0  T

   *** convergence criteria satisfied after 15 iterations ***

         #    Occupation            Energy/Eh            Energy/eV
      -------------------------------------------------------------
         1        2.0000           -0.8938632             -24.3233
       ...           ...                  ...                  ...
        90        2.0000           -0.5092155             -13.8565
        91        2.0000           -0.5066764             -13.7874
        92        2.0000           -0.5010365             -13.6339
        93        2.0000           -0.4966698             -13.5151
        94        2.0000           -0.4794302             -13.0460
        95        2.0000           -0.4714498             -12.8288
        96        2.0000           -0.4678321             -12.7304 (HOMO)
        97                         -0.3750100             -10.2045 (LUMO)
        98                         -0.3654516              -9.9444
        99                         -0.3591148              -9.7720
       100                         -0.3478515              -9.4655
       101                         -0.3343612              -9.0984
       ...                                ...                  ...
       198                          1.5032116              40.9045
      -------------------------------------------------------------
                  HL-Gap            0.0928221 Eh            2.5258 eV
             Fermi-level           -0.4214210 Eh          -11.4674 eV

 SCC (total)                   0 d,  0 h,  0 min,  2.161 sec
 SCC setup                      ...        0 min,  0.000 sec (  0.011%)
 Dispersion                     ...        0 min,  0.001 sec (  0.042%)
 classical contributions        ...        0 min,  0.000 sec (  0.004%)
 integral evaluation            ...        0 min,  0.005 sec (  0.216%)
 iterations                     ...        0 min,  2.036 sec ( 94.204%)
 molecular gradient             ...        0 min,  0.115 sec (  5.312%)
 printout                       ...        0 min,  0.005 sec (  0.210%)

         :::::::::::::::::::::::::::::::::::::::::::::::::::::
         ::                     SUMMARY                     ::
         :::::::::::::::::::::::::::::::::::::::::::::::::::::
         :: total energy            -103.947758832738 Eh    ::
         :: gradient norm              0.288677507217 Eh/a0 ::
         :: HOMO-LUMO gap              2.525816590386 eV    ::
         ::.................................................::
         :: SCC energy              -105.621803657389 Eh    ::
         :: -> isotropic ES            0.102992502238 Eh    ::
         :: -> anisotropic ES         -0.003143720253 Eh    ::
         :: -> anisotropic XC          0.057673253818 Eh    ::
         :: -> dispersion             -0.103126866854 Eh    ::
         :: repulsion energy           1.674044824651 Eh    ::
         :: add. restraining           0.000000000000 Eh    ::
         :: total charge               1.000000000000 e     ::
         :::::::::::::::::::::::::::::::::::::::::::::::::::::

      ----------------------------------------------------------- 
     |                   =====================                   |
     |                        A N C O P T                        |
     |                   =====================                   |
     |               Approximate Normal Coordinate               |
     |                Rational Function Optimizer                |
      ----------------------------------------------------------- 
      ----------------------------------------------------------- 
     |                   =====================                   |
     |                        A N C O P T                        |
     |                   =====================                   |
     |               Approximate Normal Coordinate               |
     |                Rational Function Optimizer                |
      ----------------------------------------------------------- 

          ...................................................
          :                      SETUP                      :
          :.................................................:
          :   optimization level           extreme          :
          :   max. optcycles                  1380          :
          :   ANC micro-cycles                  20          :
          :   degrees of freedom               201          :
          :.................................................:
          :   RF solver                   davidson          :
          :   write xtbopt.log                true          :
          :   linear?                        false          :
          :   energy convergence         0.5000000E-07 Eh   :
          :   grad. convergence          0.5000000E-04 Eh/α :
          :   maxmium RF displ.          1.0000000          :
          :   Hlow (freq-cutoff)         0.1000000E-01      :
          :   Hmax (freq-cutoff)         5.0000000          :
          :   S6 in model hess.         20.0000000          :
          ...................................................

generating ANC from exact Hessian ...
Using Lindh-Hessian (1995)
 Shifting diagonal of input Hessian by    9.9438529816750412E-003
 Lowest  eigenvalues of input Hessian
    0.000000    0.000000    0.000000    0.000000    0.000000    0.000000
    0.010000    0.010029    0.010081    0.010265    0.010333    0.010475
    0.010825    0.011013    0.011487    0.011615    0.011797    0.011941
 Highest eigenvalues
    2.052759    2.066774    2.130298    2.148819    2.230946    2.252965


........................................................................
.............................. CYCLE    1 ..............................
........................................................................

 iter      E             dE          RMSdq      gap      omega  full diag
   1   -105.6247689 -0.105625E+03  0.176E-04    2.53       0.0  T
   2   -105.6247689 -0.151545E-09  0.117E-04    2.53     103.2  T
   3   -105.6247689 -0.932943E-10  0.901E-05    2.53     133.6  T
     SCC iter.                  ...        0 min,  0.335 sec
     gradient                   ...        0 min,  0.110 sec
 * total energy  :  -103.9477588 Eh     change       -0.1749243E-08 Eh
   gradient norm :     0.2886760 Eh/α   predicted     0.0000000E+00 (-100.00%)
   displ. norm   :     0.5258704 α      lambda       -0.1170110E+00
   maximum displ.:     0.1750340 α      in ANC's #128, #68, #94, ...

........................................................................
.............................. CYCLE    2 ..............................
........................................................................

 iter      E             dE          RMSdq      gap      omega  full diag
   1   -105.6803844 -0.105680E+03  0.673E-01    2.27       0.0  T
   2   -105.6814627 -0.107830E-02  0.413E-01    2.41       1.0  T
   3   -105.6810515  0.411280E-03  0.151E-01    2.52       1.0  T
   4   -105.6815946 -0.543118E-03  0.784E-02    2.52       1.0  T
   5   -105.6817202 -0.125671E-03  0.475E-02    2.53       1.0  T
   6   -105.6817932 -0.729115E-04  0.278E-02    2.52       1.0  T
   7   -105.6817945 -0.135785E-05  0.175E-02    2.52       1.0  T
   8   -105.6818049 -0.103811E-04  0.831E-03    2.52       1.4  T
   9   -105.6818054 -0.498357E-06  0.408E-03    2.52       2.9  T
  10   -105.6818055 -0.751519E-07  0.206E-03    2.52       5.8  T
  11   -105.6818055 -0.396699E-07  0.105E-03    2.52      11.4  T
  12   -105.6818055 -0.114413E-07  0.529E-04    2.52      22.8  T
  13   -105.6818055 -0.659416E-08  0.240E-04    2.52      50.2  T
     SCC iter.                  ...        0 min,  1.792 sec
     gradient                   ...        0 min,  0.112 sec
 * total energy  :  -104.0260487 Eh     change       -0.7828984E-01 Eh
   gradient norm :     0.1323006 Eh/α   predicted    -0.7468949E-01 (  -4.60%)
   displ. norm   :     0.5210400 α      lambda       -0.4466816E-01
   maximum displ.:     0.1785713 α      in ANC's #33, #43, #46, ...

........................................................................
.............................. CYCLE    3 ..............................
........................................................................

 iter      E             dE          RMSdq      gap      omega  full diag
   1   -105.7117495 -0.105712E+03  0.325E-01    2.45       0.0  T
   2   -105.7122423 -0.492810E-03  0.230E-01    2.49       1.0  T
   3   -105.7121876  0.547376E-04  0.930E-02    2.49       1.0  T
   4   -105.7123285 -0.140929E-03  0.331E-02    2.48       1.0  T
   5   -105.7123547 -0.261563E-04  0.204E-02    2.48       1.0  T
   6   -105.7123725 -0.177985E-04  0.115E-02    2.48       1.1  T
   7   -105.7123735 -0.978856E-06  0.714E-03    2.48       1.7  T
   8   -105.7123750 -0.152918E-05  0.307E-03    2.49       3.9  T
   9   -105.7123751 -0.111035E-06  0.150E-03    2.49       8.0  T
  10   -105.7123751 -0.871108E-08  0.794E-04    2.49      15.2  T
  11   -105.7123751 -0.713794E-08  0.478E-04    2.49      25.2  T
     SCC iter.                  ...        0 min,  1.611 sec
     gradient                   ...        0 min,  0.111 sec
 * total energy  :  -104.0568249 Eh     change       -0.3077621E-01 Eh
   gradient norm :     0.0521945 Eh/α   predicted    -0.2839762E-01 (  -7.73%)
   displ. norm   :     0.5491134 α      lambda       -0.1646456E-01
   maximum displ.:     0.2306262 α      in ANC's #33, #43, #22, ...

........................................................................
.............................. CYCLE    4 ..............................
........................................................................

 iter      E             dE          RMSdq      gap      omega  full diag
   1   -105.7122751 -0.105712E+03  0.223E-01    2.44       0.0  T
   2   -105.7124199 -0.144823E-03  0.146E-01    2.43       1.0  T
   3   -105.7123816  0.382637E-04  0.529E-02    2.43       1.0  T
   4   -105.7124300 -0.483379E-04  0.212E-02    2.43       1.0  T
   5   -105.7124446 -0.146624E-04  0.132E-02    2.43       1.0  T
   6   -105.7124505 -0.584764E-05  0.818E-03    2.43       1.5  T
   7   -105.7124508 -0.337936E-06  0.496E-03    2.43       2.4  T
   8   -105.7124514 -0.554169E-06  0.207E-03    2.43       5.8  T
   9   -105.7124514 -0.351259E-07  0.101E-03    2.43      11.9  T
  10   -105.7124514 -0.413111E-08  0.555E-04    2.43      21.7  T
  11   -105.7124514 -0.365408E-08  0.338E-04    2.43      35.6  T
     SCC iter.                  ...        0 min,  1.497 sec
     gradient                   ...        0 min,  0.111 sec
 * total energy  :  -104.0685521 Eh     change       -0.1172718E-01 Eh
   gradient norm :     0.0269209 Eh/α   predicted    -0.1071481E-01 (  -8.63%)
   displ. norm   :     0.5677517 α      lambda       -0.7563563E-02
   maximum displ.:     0.2160853 α      in ANC's #14, #33, #22, ...

........................................................................
.............................. CYCLE    5 ..............................
........................................................................

 iter      E             dE          RMSdq      gap      omega  full diag
   1   -105.7114726 -0.105711E+03  0.147E-01    2.43       0.0  T
   2   -105.7114980 -0.254221E-04  0.879E-02    2.43       1.0  T
   3   -105.7114366  0.613812E-04  0.331E-02    2.42       1.0  T
   4   -105.7114930 -0.564386E-04  0.153E-02    2.42       1.0  T
   5   -105.7115092 -0.161411E-04  0.552E-03    2.42       2.2  T
   6   -105.7115095 -0.306484E-06  0.368E-03    2.42       3.3  T
   7   -105.7115097 -0.183152E-06  0.195E-03    2.42       6.2  T
   8   -105.7115097 -0.236553E-07  0.957E-04    2.42      12.6  T
   9   -105.7115097 -0.113371E-07  0.533E-04    2.42      22.6  T
     SCC iter.                  ...        0 min,  1.256 sec
     gradient                   ...        0 min,  0.111 sec
 * total energy  :  -104.0743208 Eh     change       -0.5768709E-02 Eh
   gradient norm :     0.0189996 Eh/α   predicted    -0.5000819E-02 ( -13.31%)
   displ. norm   :     0.6178025 α      lambda       -0.5088086E-02
   maximum displ.:     0.3041266 α      in ANC's #14, #22, #20, ...

........................................................................
.............................. CYCLE    6 ..............................
........................................................................

 iter      E             dE          RMSdq      gap      omega  full diag
   1   -105.7148069 -0.105715E+03  0.133E-01    2.43       0.0  T
   2   -105.7148223 -0.154373E-04  0.765E-02    2.43       1.0  T
   3   -105.7147716  0.507045E-04  0.325E-02    2.43       1.0  T
   4   -105.7148255 -0.538646E-04  0.114E-02    2.43       1.1  T
   5   -105.7148314 -0.598062E-05  0.523E-03    2.43       2.3  T
   6   -105.7148325 -0.102217E-05  0.267E-03    2.43       4.5  T
   7   -105.7148326 -0.139796E-06  0.157E-03    2.43       7.6  T
   8   -105.7148326 -0.150864E-07  0.814E-04    2.43      14.8  T
   9   -105.7148326 -0.471898E-08  0.427E-04    2.43      28.2  T
     SCC iter.                  ...        0 min,  1.138 sec
     gradient                   ...        0 min,  0.113 sec
 * total energy  :  -104.0783986 Eh     change       -0.4077845E-02 Eh
   gradient norm :     0.0172074 Eh/α   predicted    -0.3515054E-02 ( -13.80%)
   displ. norm   :     0.6613823 α      lambda       -0.3949447E-02
   maximum displ.:     0.3842576 α      in ANC's #14, #22, #20, ...

........................................................................
.............................. CYCLE    7 ..............................
........................................................................

 iter      E             dE          RMSdq      gap      omega  full diag
   1   -105.7201894 -0.105720E+03  0.144E-01    2.44       0.0  T
   2   -105.7202080 -0.186153E-04  0.802E-02    2.45       1.0  T
   3   -105.7201807  0.273078E-04  0.299E-02    2.45       1.0  T
   4   -105.7202103 -0.296170E-04  0.116E-02    2.45       1.0  T
   5   -105.7202135 -0.316068E-05  0.661E-03    2.45       1.8  T
   6   -105.7202156 -0.216281E-05  0.280E-03    2.45       4.3  T
   7   -105.7202158 -0.157911E-06  0.181E-03    2.45       6.7  T
   8   -105.7202158 -0.273692E-07  0.935E-04    2.45      12.9  T
   9   -105.7202158 -0.152909E-08  0.488E-04    2.45      24.6  T
     SCC iter.                  ...        0 min,  1.157 sec
     gradient                   ...        0 min,  0.112 sec
 * total energy  :  -104.0816307 Eh     change       -0.3232066E-02 Eh
   gradient norm :     0.0156009 Eh/α   predicted    -0.2838520E-02 ( -12.18%)
   displ. norm   :     0.6854634 α      lambda       -0.3122153E-02
   maximum displ.:     0.4433599 α      in ANC's #14, #22, #20, ...

........................................................................
.............................. CYCLE    8 ..............................
........................................................................

 iter      E             dE          RMSdq      gap      omega  full diag
   1   -105.7236871 -0.105724E+03  0.164E-01    2.47       0.0  T
   2   -105.7237110 -0.238558E-04  0.870E-02    2.47       1.0  T
   3   -105.7237003  0.106289E-04  0.269E-02    2.47       1.0  T
   4   -105.7237135 -0.131387E-04  0.119E-02    2.47       1.0  T
   5   -105.7237143 -0.780320E-06  0.706E-03    2.47       1.7  T
   6   -105.7237170 -0.270594E-05  0.290E-03    2.47       4.2  T
   7   -105.7237171 -0.125959E-06  0.203E-03    2.47       5.9  T
   8   -105.7237172 -0.500894E-07  0.111E-03    2.47      10.9  T
   9   -105.7237172 -0.392929E-08  0.536E-04    2.47      22.5  T
  10   -105.7237172 -0.437107E-08  0.222E-04    2.47      54.1  T
     SCC iter.                  ...        0 min,  1.227 sec
     gradient                   ...        0 min,  0.110 sec
 * total energy  :  -104.0842163 Eh     change       -0.2585620E-02 Eh
   gradient norm :     0.0127885 Eh/α   predicted    -0.2294565E-02 ( -11.26%)
   displ. norm   :     0.6675049 α      lambda       -0.2410501E-02
   maximum displ.:     0.4458631 α      in ANC's #14, #9, #11, ...

........................................................................
.............................. CYCLE    9 ..............................
........................................................................

 iter      E             dE          RMSdq      gap      omega  full diag
   1   -105.7251592 -0.105725E+03  0.175E-01    2.48       0.0  T
   2   -105.7251851 -0.258927E-04  0.899E-02    2.49       1.0  T
   3   -105.7251818  0.327038E-05  0.240E-02    2.49       1.0  T
   4   -105.7251879 -0.607560E-05  0.113E-02    2.49       1.1  T
   5   -105.7251885 -0.571784E-06  0.592E-03    2.49       2.0  T
   6   -105.7251902 -0.176513E-05  0.265E-03    2.49       4.5  T
   7   -105.7251903 -0.678389E-07  0.192E-03    2.49       6.3  T
   8   -105.7251904 -0.616066E-07  0.108E-03    2.49      11.1  T
   9   -105.7251904 -0.794171E-08  0.530E-04    2.49      22.7  T
  10   -105.7251904 -0.260734E-08  0.201E-04    2.49      59.9  T
     SCC iter.                  ...        0 min,  1.385 sec
     gradient                   ...        0 min,  0.111 sec
 * total energy  :  -104.0862496 Eh     change       -0.2033319E-02 Eh
   gradient norm :     0.0104328 Eh/α   predicted    -0.1742267E-02 ( -14.31%)
   displ. norm   :     0.6776705 α      lambda       -0.2063665E-02
   maximum displ.:     0.4491841 α      in ANC's #14, #11, #9, ...

........................................................................
.............................. CYCLE   10 ..............................
........................................................................

 iter      E             dE          RMSdq      gap      omega  full diag
   1   -105.7255964 -0.105726E+03  0.186E-01    2.48       0.0  T
   2   -105.7256216 -0.251641E-04  0.940E-02    2.48       1.0  T
   3   -105.7256195  0.207983E-05  0.227E-02    2.49       1.0  T
   4   -105.7256243 -0.475167E-05  0.111E-02    2.49       1.1  T
   5   -105.7256256 -0.131636E-05  0.482E-03    2.49       2.5  T
   6   -105.7256266 -0.103550E-05  0.235E-03    2.49       5.1  T
   7   -105.7256267 -0.311916E-07  0.171E-03    2.49       7.0  T
   8   -105.7256267 -0.582890E-07  0.986E-04    2.49      12.2  T
   9   -105.7256267 -0.864638E-08  0.502E-04    2.49      24.0  T
     SCC iter.                  ...        0 min,  1.177 sec
     gradient                   ...        0 min,  0.110 sec
 * total energy  :  -104.0880248 Eh     change       -0.1775135E-02 Eh
   gradient norm :     0.0102835 Eh/α   predicted    -0.1505694E-02 ( -15.18%)
   displ. norm   :     0.7162608 α      lambda       -0.1959930E-02
   maximum displ.:     0.4614116 α      in ANC's #14, #11, #9, ...

........................................................................
.............................. CYCLE   11 ..............................
........................................................................

 iter      E             dE          RMSdq      gap      omega  full diag
   1   -105.7263450 -0.105726E+03  0.198E-01    2.48       0.0  T
   2   -105.7263681 -0.231187E-04  0.101E-01    2.49       1.0  T
   3   -105.7263653  0.281896E-05  0.223E-02    2.49       1.0  T
   4   -105.7263701 -0.477692E-05  0.113E-02    2.49       1.1  T
   5   -105.7263725 -0.247948E-05  0.389E-03    2.49       3.1  T
   6   -105.7263731 -0.614577E-06  0.192E-03    2.49       6.3  T
   7   -105.7263732 -0.347290E-07  0.134E-03    2.49       9.0  T
   8   -105.7263732 -0.388806E-07  0.764E-04    2.49      15.8  T
   9   -105.7263732 -0.490134E-08  0.432E-04    2.49      27.9  T
     SCC iter.                  ...        0 min,  1.322 sec
     gradient                   ...        0 min,  0.115 sec
 * total energy  :  -104.0897234 Eh     change       -0.1698651E-02 Eh
   gradient norm :     0.0114492 Eh/α   predicted    -0.1482716E-02 ( -12.71%)
   displ. norm   :     0.7558368 α      lambda       -0.1901369E-02
   maximum displ.:     0.4624813 α      in ANC's #14, #11, #9, ...

........................................................................
.............................. CYCLE   12 ..............................
........................................................................

 iter      E             dE          RMSdq      gap      omega  full diag
   1   -105.7257208 -0.105726E+03  0.211E-01    2.50       0.0  T
   2   -105.7257426 -0.218351E-04  0.108E-01    2.50       1.0  T
   3   -105.7257386  0.405298E-05  0.222E-02    2.50       1.0  T
   4   -105.7257437 -0.517678E-05  0.119E-02    2.50       1.0  T
   5   -105.7257476 -0.385950E-05  0.322E-03    2.50       3.7  T
   6   -105.7257479 -0.306706E-06  0.173E-03    2.50       7.0  T
   7   -105.7257480 -0.736385E-07  0.101E-03    2.50      11.9  T
   8   -105.7257480 -0.237703E-07  0.541E-04    2.50      22.3  T
   9   -105.7257480 -0.186436E-08  0.337E-04    2.50      35.7  T
     SCC iter.                  ...        0 min,  1.098 sec
     gradient                   ...        0 min,  0.109 sec
 * total energy  :  -104.0913357 Eh     change       -0.1612326E-02 Eh
   gradient norm :     0.0121905 Eh/α   predicted    -0.1493807E-02 (  -7.35%)
   displ. norm   :     0.7559723 α      lambda       -0.1943851E-02
   maximum displ.:     0.4289095 α      in ANC's #14, #11, #9, ...

........................................................................
.............................. CYCLE   13 ..............................
........................................................................

 iter      E             dE          RMSdq      gap      omega  full diag
   1   -105.7303346 -0.105730E+03  0.229E-01    2.53       0.0  T
   2   -105.7303617 -0.271260E-04  0.117E-01    2.53       1.0  T
   3   -105.7303593  0.243212E-05  0.223E-02    2.53       1.0  T
   4   -105.7303627 -0.339936E-05  0.124E-02    2.54       1.0  T
   5   -105.7303672 -0.454238E-05  0.312E-03    2.54       3.9  T
   6   -105.7303675 -0.317148E-06  0.142E-03    2.53       8.5  T
   7   -105.7303676 -0.597435E-07  0.774E-04    2.53      15.6  T
   8   -105.7303676 -0.206190E-07  0.283E-04    2.53      42.5  T
     SCC iter.                  ...        0 min,  0.993 sec
     gradient                   ...        0 min,  0.111 sec
 * total energy  :  -104.0927309 Eh     change       -0.1395141E-02 Eh
   gradient norm :     0.0165684 Eh/α   predicted    -0.1527377E-02 (   9.48%)
   displ. norm   :     0.6799693 α      lambda       -0.1768670E-02
   maximum displ.:     0.3510280 α      in ANC's #14, #11, #9, ...

........................................................................
.............................. CYCLE   14 ..............................
........................................................................

 iter      E             dE          RMSdq      gap      omega  full diag
   1   -105.7298796 -0.105730E+03  0.220E-01    2.55       0.0  T
   2   -105.7299065 -0.269161E-04  0.110E-01    2.55       1.0  T
   3   -105.7299027  0.377369E-05  0.214E-02    2.55       1.0  T
   4   -105.7299083 -0.554381E-05  0.117E-02    2.55       1.0  T
   5   -105.7299119 -0.360900E-05  0.355E-03    2.55       3.4  T
   6   -105.7299123 -0.371020E-06  0.142E-03    2.55       8.5  T
   7   -105.7299123 -0.431097E-07  0.772E-04    2.55      15.6  T
   8   -105.7299123 -0.206730E-07  0.310E-04    2.55      38.9  T
     SCC iter.                  ...        0 min,  1.025 sec
     gradient                   ...        0 min,  0.111 sec
 * total energy  :  -104.0941555 Eh     change       -0.1424606E-02 Eh
   gradient norm :     0.0110118 Eh/α   predicted    -0.1293218E-02 (  -9.22%)
   displ. norm   :     0.6981506 α      lambda       -0.1530807E-02
   maximum displ.:     0.3112316 α      in ANC's #14, #9, #11, ...

........................................................................
.............................. CYCLE   15 ..............................
........................................................................

 iter      E             dE          RMSdq      gap      omega  full diag
   1   -105.7293773 -0.105729E+03  0.241E-01    2.55       0.0  T
   2   -105.7294046 -0.273006E-04  0.118E-01    2.55       1.0  T
   3   -105.7293993  0.533078E-05  0.218E-02    2.55       1.0  T
   4   -105.7294067 -0.742096E-05  0.122E-02    2.55       1.0  T
   5   -105.7294108 -0.408983E-05  0.332E-03    2.55       3.6  T
   6   -105.7294111 -0.256232E-06  0.156E-03    2.55       7.7  T
   7   -105.7294111 -0.756032E-07  0.824E-04    2.55      14.6  T
   8   -105.7294111 -0.185926E-07  0.399E-04    2.55      30.2  T
     SCC iter.                  ...        0 min,  1.142 sec
     gradient                   ...        0 min,  0.111 sec
 * total energy  :  -104.0954062 Eh     change       -0.1250701E-02 Eh
   gradient norm :     0.0117483 Eh/α   predicted    -0.1138476E-02 (  -8.97%)
   displ. norm   :     0.7001796 α      lambda       -0.2049975E-02
   maximum displ.:     0.3169112 α      in ANC's #9, #11, #14, ...

........................................................................
.............................. CYCLE   16 ..............................
........................................................................

 iter      E             dE          RMSdq      gap      omega  full diag
   1   -105.7538730 -0.105754E+03  0.266E-01    2.56       0.0  T
   2   -105.7539302 -0.571831E-04  0.132E-01    2.56       1.0  T
   3   -105.7539273  0.286194E-05  0.252E-02    2.56       1.0  T
   4   -105.7539345 -0.724675E-05  0.142E-02    2.56       1.0  T
   5   -105.7539377 -0.316930E-05  0.568E-03    2.56       2.1  T
   6   -105.7539388 -0.107296E-05  0.231E-03    2.56       5.2  T
   7   -105.7539388 -0.588989E-07  0.163E-03    2.56       7.4  T
   8   -105.7539389 -0.606703E-07  0.981E-04    2.56      12.3  T
   9   -105.7539389 -0.100903E-07  0.579E-04    2.56      20.8  T
     SCC iter.                  ...        0 min,  1.324 sec
     gradient                   ...        0 min,  0.115 sec
 * total energy  :  -104.0957418 Eh     change       -0.3355905E-03 Eh
   gradient norm :     0.0279303 Eh/α   predicted    -0.1527491E-02 ( 355.17%)
   displ. norm   :     0.4600146 α      lambda       -0.2420708E-02
   maximum displ.:     0.2054489 α      in ANC's #14, #9, #11, ...

........................................................................
.............................. CYCLE   17 ..............................
........................................................................

 iter      E             dE          RMSdq      gap      omega  full diag
   1   -105.7341581 -0.105734E+03  0.163E-01    2.56       0.0  T
   2   -105.7341873 -0.292549E-04  0.796E-02    2.56       1.0  T
   3   -105.7341838  0.353968E-05  0.193E-02    2.57       1.0  T
   4   -105.7341901 -0.634409E-05  0.916E-03    2.57       1.3  T
   5   -105.7341912 -0.110674E-05  0.435E-03    2.57       2.8  T
   6   -105.7341918 -0.612678E-06  0.133E-03    2.57       9.1  T
   7   -105.7341919 -0.228619E-07  0.814E-04    2.57      14.8  T
   8   -105.7341919 -0.333143E-07  0.377E-04    2.57      31.9  T
     SCC iter.                  ...        0 min,  1.108 sec
     gradient                   ...        0 min,  0.111 sec
 * total energy  :  -104.0971783 Eh     change       -0.1436564E-02 Eh
   gradient norm :     0.0121831 Eh/α   predicted    -0.1466484E-02 (   2.08%)
   displ. norm   :     0.5258170 α      lambda       -0.9992165E-03
   maximum displ.:     0.2624494 α      in ANC's #9, #14, #11, ...

........................................................................
.............................. CYCLE   18 ..............................
........................................................................

 iter      E             dE          RMSdq      gap      omega  full diag
   1   -105.7314234 -0.105731E+03  0.132E-01    2.57       0.0  T
   2   -105.7314329 -0.952297E-05  0.677E-02    2.58       1.0  T
   3   -105.7314319  0.107610E-05  0.128E-02    2.58       1.0  T
   4   -105.7314324 -0.563276E-06  0.744E-03    2.58       1.6  T
   5   -105.7314340 -0.159426E-05  0.342E-03    2.58       3.5  T
   6   -105.7314345 -0.508472E-06  0.141E-03    2.58       8.5  T
   7   -105.7314346 -0.102938E-06  0.461E-04    2.58      26.1  T
   8   -105.7314346 -0.315229E-08  0.244E-04    2.58      49.3  T
     SCC iter.                  ...        0 min,  1.121 sec
     gradient                   ...        0 min,  0.112 sec
 * total energy  :  -104.0978098 Eh     change       -0.6314884E-03 Eh
   gradient norm :     0.0142808 Eh/α   predicted    -0.6377428E-03 (   0.99%)
   displ. norm   :     0.5472207 α      lambda       -0.9733444E-03
   maximum displ.:     0.2951193 α      in ANC's #9, #4, #11, ...

........................................................................
.............................. CYCLE   19 ..............................
........................................................................

 iter      E             dE          RMSdq      gap      omega  full diag
   1   -105.7315729 -0.105732E+03  0.164E-01    2.59       0.0  T
   2   -105.7315840 -0.111091E-04  0.789E-02    2.59       1.0  T
   3   -105.7315818  0.215496E-05  0.147E-02    2.59       1.0  T
   4   -105.7315836 -0.176245E-05  0.875E-03    2.59       1.4  T
   5   -105.7315855 -0.192652E-05  0.383E-03    2.59       3.1  T
   6   -105.7315863 -0.815895E-06  0.134E-03    2.59       9.0  T
   7   -105.7315864 -0.765849E-07  0.534E-04    2.59      22.5  T
   8   -105.7315864 -0.544138E-08  0.222E-04    2.59      54.2  T
     SCC iter.                  ...        0 min,  1.044 sec
     gradient                   ...        0 min,  0.115 sec
 * total energy  :  -104.0985735 Eh     change       -0.7636513E-03 Eh
   gradient norm :     0.0112188 Eh/α   predicted    -0.6324074E-03 ( -17.19%)
   displ. norm   :     0.5451342 α      lambda       -0.1315299E-02
   maximum displ.:     0.2770173 α      in ANC's #9, #4, #5, ...

........................................................................
.............................. CYCLE   20 ..............................
........................................................................

 iter      E             dE          RMSdq      gap      omega  full diag
   1   -105.7493419 -0.105749E+03  0.108E-01    2.60       0.0  T
   2   -105.7493545 -0.125348E-04  0.632E-02    2.61       1.0  T
   3   -105.7493332  0.212890E-04  0.200E-02    2.61       1.0  T
   4   -105.7493560 -0.228025E-04  0.661E-03    2.62       1.8  T
   5   -105.7493580 -0.198501E-05  0.278E-03    2.62       4.3  T
   6   -105.7493583 -0.339630E-06  0.136E-03    2.61       8.9  T
   7   -105.7493584 -0.661264E-07  0.603E-04    2.61      20.0  T
   8   -105.7493584 -0.547981E-08  0.256E-04    2.61      47.0  T
     SCC iter.                  ...        0 min,  0.942 sec
     gradient                   ...        0 min,  0.113 sec
 * total energy  :  -104.0992268 Eh     change       -0.6533702E-03 Eh
   gradient norm :     0.0144283 Eh/α   predicted    -0.8530865E-03 (  30.57%)
   displ. norm   :     0.5844145 α      lambda       -0.9780870E-03
   maximum displ.:     0.3056331 α      in ANC's #9, #4, #11, ...
 * RMSD in coord.:     1.1590086 α      energy gain  -0.1514680E+00 Eh

generating ANC from exact Hessian ...
Using Lindh-Hessian (1995)
 Shifting diagonal of input Hessian by    9.9635989034429998E-003
 Lowest  eigenvalues of input Hessian
    0.000000    0.000000    0.000000    0.000000    0.000000    0.000000
    0.010000    0.010053    0.010308    0.010327    0.010332    0.010401
    0.010744    0.010848    0.011119    0.011317    0.011553    0.011647
 Highest eigenvalues
    2.017886    2.060313    2.075891    2.111435    2.129584    2.262853


........................................................................
.............................. CYCLE   21 ..............................
........................................................................

 iter      E             dE          RMSdq      gap      omega  full diag
   1   -105.7428521 -0.105743E+03  0.224E-01    2.60       0.0  T
   2   -105.7428751 -0.230103E-04  0.105E-01    2.60       1.0  T
   3   -105.7428693  0.586379E-05  0.228E-02    2.60       1.0  T
   4   -105.7428778 -0.851930E-05  0.120E-02    2.60       1.0  T
   5   -105.7428807 -0.292915E-05  0.420E-03    2.60       2.9  T
   6   -105.7428810 -0.328556E-06  0.199E-03    2.60       6.0  T
   7   -105.7428811 -0.107100E-06  0.116E-03    2.60      10.4  T
   8   -105.7428812 -0.194824E-07  0.568E-04    2.60      21.2  T
   9   -105.7428812 -0.722399E-08  0.347E-04    2.60      34.7  T
     SCC iter.                  ...        0 min,  1.191 sec
     gradient                   ...        0 min,  0.113 sec
 * total energy  :  -104.0997512 Eh     change       -0.5243845E-03 Eh
   gradient norm :     0.0121655 Eh/α   predicted     0.0000000E+00 (-100.00%)
   displ. norm   :     0.1858210 α      lambda       -0.7426076E-03
   maximum displ.:     0.0705361 α      in ANC's #16, #17, #12, ...

........................................................................
.............................. CYCLE   22 ..............................
........................................................................

 iter      E             dE          RMSdq      gap      omega  full diag
   1   -105.7425099 -0.105743E+03  0.174E-01    2.61       0.0  T
   2   -105.7425289 -0.190425E-04  0.788E-02    2.61       1.0  T
   3   -105.7425296 -0.667745E-06  0.142E-02    2.61       1.0  T
   4   -105.7425300 -0.404186E-06  0.824E-03    2.61       1.5  T
   5   -105.7425318 -0.183798E-05  0.401E-03    2.61       3.0  T
   6   -105.7425321 -0.265433E-06  0.177E-03    2.61       6.8  T
   7   -105.7425321 -0.626762E-07  0.107E-03    2.61      11.2  T
   8   -105.7425322 -0.266513E-07  0.468E-04    2.61      25.7  T
   9   -105.7425322 -0.456161E-08  0.244E-04    2.61      49.3  T
     SCC iter.                  ...        0 min,  1.211 sec
     gradient                   ...        0 min,  0.111 sec
 * total energy  :  -104.1001940 Eh     change       -0.4427833E-03 Eh
   gradient norm :     0.0060672 Eh/α   predicted    -0.3841284E-03 ( -13.25%)
   displ. norm   :     0.2685279 α      lambda       -0.6245715E-03
   maximum displ.:     0.1077980 α      in ANC's #12, #13, #4, ...

........................................................................
.............................. CYCLE   23 ..............................
........................................................................

 iter      E             dE          RMSdq      gap      omega  full diag
   1   -105.7410965 -0.105741E+03  0.941E-02    2.62       0.0  T
   2   -105.7411033 -0.682317E-05  0.468E-02    2.61       1.0  T
   3   -105.7411031  0.198275E-06  0.971E-03    2.61       1.2  T
   4   -105.7411039 -0.761050E-06  0.525E-03    2.61       2.3  T
   5   -105.7411044 -0.517383E-06  0.188E-03    2.61       6.4  T
   6   -105.7411045 -0.868183E-07  0.806E-04    2.61      14.9  T
   7   -105.7411045 -0.144430E-07  0.453E-04    2.61      26.6  T
     SCC iter.                  ...        0 min,  0.798 sec
     gradient                   ...        0 min,  0.111 sec
 * total energy  :  -104.1006463 Eh     change       -0.4522387E-03 Eh
   gradient norm :     0.0060876 Eh/α   predicted    -0.3348223E-03 ( -25.96%)
   displ. norm   :     0.4070864 α      lambda       -0.6135910E-03
   maximum displ.:     0.1816368 α      in ANC's #12, #13, #4, ...

........................................................................
.............................. CYCLE   24 ..............................
........................................................................

 iter      E             dE          RMSdq      gap      omega  full diag
   1   -105.7391059 -0.105739E+03  0.112E-01    2.61       0.0  T
   2   -105.7391125 -0.661449E-05  0.571E-02    2.61       1.0  T
   3   -105.7391121  0.451979E-06  0.113E-02    2.61       1.1  T
   4   -105.7391126 -0.544605E-06  0.628E-03    2.60       1.9  T
   5   -105.7391139 -0.134616E-05  0.162E-03    2.61       7.4  T
   6   -105.7391140 -0.510811E-07  0.594E-04    2.61      20.3  T
   7   -105.7391140 -0.247658E-08  0.311E-04    2.61      38.7  T
     SCC iter.                  ...        0 min,  0.635 sec
     gradient                   ...        0 min,  0.115 sec
 * total energy  :  -104.1011255 Eh     change       -0.4792707E-03 Eh
   gradient norm :     0.0103864 Eh/α   predicted    -0.3576376E-03 ( -25.38%)
   displ. norm   :     0.5104965 α      lambda       -0.6978265E-03
   maximum displ.:     0.2453406 α      in ANC's #12, #13, #4, ...

........................................................................
.............................. CYCLE   25 ..............................
........................................................................

 iter      E             dE          RMSdq      gap      omega  full diag
   1   -105.7379462 -0.105738E+03  0.986E-02    2.61       0.0  T
   2   -105.7379493 -0.313143E-05  0.547E-02    2.61       1.0  T
   3   -105.7379484  0.898635E-06  0.909E-03    2.61       1.3  T
   4   -105.7379492 -0.752855E-06  0.503E-03    2.61       2.4  T
   5   -105.7379502 -0.103503E-05  0.974E-04    2.61      12.4  T
   6   -105.7379502 -0.236574E-07  0.570E-04    2.61      21.1  T
   7   -105.7379502 -0.120448E-07  0.300E-04    2.61      40.2  T
     SCC iter.                  ...        0 min,  0.954 sec
     gradient                   ...        0 min,  0.109 sec
 * total energy  :  -104.1016808 Eh     change       -0.5552487E-03 Eh
   gradient norm :     0.0116134 Eh/α   predicted    -0.4398840E-03 ( -20.78%)
   displ. norm   :     0.5224676 α      lambda       -0.7475322E-03
   maximum displ.:     0.2598167 α      in ANC's #12, #4, #13, ...

........................................................................
.............................. CYCLE   26 ..............................
........................................................................

 iter      E             dE          RMSdq      gap      omega  full diag
   1   -105.7394422 -0.105739E+03  0.883E-02    2.61       0.0  T
   2   -105.7394456 -0.344845E-05  0.510E-02    2.61       1.0  T
   3   -105.7394443  0.131879E-05  0.935E-03    2.61       1.3  T
   4   -105.7394458 -0.144526E-05  0.542E-03    2.61       2.2  T
   5   -105.7394465 -0.750434E-06  0.270E-03    2.61       4.5  T
   6   -105.7394466 -0.122805E-06  0.181E-03    2.61       6.6  T
   7   -105.7394467 -0.351994E-07  0.124E-03    2.61       9.7  T
   8   -105.7394467 -0.171554E-07  0.544E-04    2.61      22.1  T
   9   -105.7394467 -0.439701E-08  0.242E-04    2.61      49.7  T
     SCC iter.                  ...        0 min,  1.246 sec
     gradient                   ...        0 min,  0.113 sec
 * total energy  :  -104.1022681 Eh     change       -0.5873472E-03 Eh
   gradient norm :     0.0084155 Eh/α   predicted    -0.4757979E-03 ( -18.99%)
   displ. norm   :     0.5477118 α      lambda       -0.6580462E-03
   maximum displ.:     0.2832945 α      in ANC's #12, #4, #13, ...

........................................................................
.............................. CYCLE   27 ..............................
........................................................................

 iter      E             dE          RMSdq      gap      omega  full diag
   1   -105.7422838 -0.105742E+03  0.882E-02    2.62       0.0  T
   2   -105.7422876 -0.383135E-05  0.498E-02    2.62       1.0  T
   3   -105.7422864  0.124510E-05  0.872E-03    2.62       1.4  T
   4   -105.7422875 -0.115681E-05  0.493E-03    2.62       2.4  T
   5   -105.7422884 -0.844082E-06  0.177E-03    2.62       6.8  T
   6   -105.7422884 -0.599682E-07  0.845E-04    2.62      14.2  T
   7   -105.7422884 -0.749320E-08  0.543E-04    2.62      22.2  T
     SCC iter.                  ...        0 min,  0.940 sec
     gradient                   ...        0 min,  0.111 sec
 * total energy  :  -104.1027760 Eh     change       -0.5078343E-03 Eh
   gradient norm :     0.0066927 Eh/α   predicted    -0.4277331E-03 ( -15.77%)
   displ. norm   :     0.5650268 α      lambda       -0.5335460E-03
   maximum displ.:     0.2946441 α      in ANC's #12, #4, #13, ...

........................................................................
.............................. CYCLE   28 ..............................
........................................................................

 iter      E             dE          RMSdq      gap      omega  full diag
   1   -105.7432120 -0.105743E+03  0.822E-02    2.63       0.0  T
   2   -105.7432152 -0.321662E-05  0.477E-02    2.63       1.0  T
   3   -105.7432143  0.867799E-06  0.879E-03    2.63       1.4  T
   4   -105.7432150 -0.709786E-06  0.561E-03    2.63       2.1  T
   5   -105.7432159 -0.882035E-06  0.286E-03    2.63       4.2  T
   6   -105.7432161 -0.140350E-06  0.186E-03    2.63       6.5  T
   7   -105.7432161 -0.473302E-07  0.127E-03    2.63       9.5  T
   8   -105.7432161 -0.122379E-07  0.594E-04    2.63      20.3  T
   9   -105.7432161 -0.490112E-08  0.255E-04    2.63      47.2  T
     SCC iter.                  ...        0 min,  1.226 sec
     gradient                   ...        0 min,  0.113 sec
 * total energy  :  -104.1031923 Eh     change       -0.4163683E-03 Eh
   gradient norm :     0.0075506 Eh/α   predicted    -0.3519418E-03 ( -15.47%)
   displ. norm   :     0.5242505 α      lambda       -0.5061095E-03
   maximum displ.:     0.2722102 α      in ANC's #12, #4, #1, ...

........................................................................
.............................. CYCLE   29 ..............................
........................................................................

 iter      E             dE          RMSdq      gap      omega  full diag
   1   -105.7489857 -0.105749E+03  0.815E-02    2.64       0.0  T
   2   -105.7489905 -0.472943E-05  0.446E-02    2.64       1.0  T
   3   -105.7489904  0.773240E-07  0.794E-03    2.64       1.5  T
   4   -105.7489905 -0.139400E-06  0.418E-03    2.64       2.9  T
   5   -105.7489910 -0.420082E-06  0.186E-03    2.64       6.5  T
   6   -105.7489911 -0.107037E-06  0.745E-04    2.64      16.1  T
   7   -105.7489911 -0.183097E-07  0.465E-04    2.64      25.9  T
     SCC iter.                  ...        0 min,  0.829 sec
     gradient                   ...        0 min,  0.135 sec
 * total energy  :  -104.1035313 Eh     change       -0.3389750E-03 Eh
   gradient norm :     0.0086828 Eh/α   predicted    -0.3226095E-03 (  -4.83%)
   displ. norm   :     0.6702913 α      lambda       -0.5266948E-03
   maximum displ.:     0.3574643 α      in ANC's #12, #4, #1, ...

........................................................................
.............................. CYCLE   30 ..............................
........................................................................

 iter      E             dE          RMSdq      gap      omega  full diag
   1   -105.7418888 -0.105742E+03  0.987E-02    2.64       0.0  T
   2   -105.7418965 -0.767846E-05  0.547E-02    2.64       1.0  T
   3   -105.7418965 -0.181754E-07  0.963E-03    2.64       1.2  T
   4   -105.7418969 -0.420068E-06  0.453E-03    2.64       2.7  T
   5   -105.7418975 -0.636893E-06  0.188E-03    2.64       6.4  T
   6   -105.7418977 -0.128191E-06  0.700E-04    2.64      17.2  T
   7   -105.7418977 -0.138921E-07  0.364E-04    2.64      33.1  T
     SCC iter.                  ...        0 min,  0.942 sec
     gradient                   ...        0 min,  0.115 sec
 * total energy  :  -104.1037902 Eh     change       -0.2588848E-03 Eh
   gradient norm :     0.0099214 Eh/α   predicted    -0.3816717E-03 (  47.43%)
   displ. norm   :     0.2140227 α      lambda       -0.3204377E-03
   maximum displ.:     0.0958834 α      in ANC's #4, #1, #12, ...

........................................................................
.............................. CYCLE   31 ..............................
........................................................................

 iter      E             dE          RMSdq      gap      omega  full diag
   1   -105.7456909 -0.105746E+03  0.369E-02    2.64       0.0  T
   2   -105.7456923 -0.145667E-05  0.206E-02    2.64       1.0  T
   3   -105.7456919  0.389022E-06  0.480E-03    2.64       2.5  T
   4   -105.7456924 -0.430187E-06  0.245E-03    2.64       4.9  T
   5   -105.7456925 -0.149959E-06  0.130E-03    2.64       9.3  T
   6   -105.7456926 -0.505526E-07  0.579E-04    2.64      20.8  T
   7   -105.7456926 -0.127648E-07  0.318E-04    2.64      37.9  T
     SCC iter.                  ...        0 min,  0.865 sec
     gradient                   ...        0 min,  0.111 sec
 * total energy  :  -104.1040374 Eh     change       -0.2472443E-03 Eh
   gradient norm :     0.0048727 Eh/α   predicted    -0.1675626E-03 ( -32.23%)
   displ. norm   :     0.4802677 α      lambda       -0.3262179E-03
   maximum displ.:     0.2235164 α      in ANC's #4, #12, #1, ...

........................................................................
.............................. CYCLE   32 ..............................
........................................................................

 iter      E             dE          RMSdq      gap      omega  full diag
   1   -105.7468125 -0.105747E+03  0.696E-02    2.64       0.0  T
   2   -105.7468143 -0.173055E-05  0.387E-02    2.64       1.0  T
   3   -105.7468128  0.149204E-05  0.721E-03    2.64       1.7  T
   4   -105.7468143 -0.151074E-05  0.383E-03    2.64       3.1  T
   5   -105.7468147 -0.434163E-06  0.174E-03    2.64       6.9  T
   6   -105.7468148 -0.126161E-06  0.676E-04    2.64      17.8  T
   7   -105.7468149 -0.255754E-07  0.258E-04    2.64      46.6  T
     SCC iter.                  ...        0 min,  0.810 sec
     gradient                   ...        0 min,  0.112 sec
 * total energy  :  -104.1042886 Eh     change       -0.2512231E-03 Eh
   gradient norm :     0.0044207 Eh/α   predicted    -0.2007361E-03 ( -20.10%)
   displ. norm   :     0.5033480 α      lambda       -0.2634692E-03
   maximum displ.:     0.2317724 α      in ANC's #4, #1, #12, ...

........................................................................
.............................. CYCLE   33 ..............................
........................................................................

 iter      E             dE          RMSdq      gap      omega  full diag
   1   -105.7477875 -0.105748E+03  0.699E-02    2.64       0.0  T
   2   -105.7477889 -0.142172E-05  0.393E-02    2.64       1.0  T
   3   -105.7477880  0.916621E-06  0.661E-03    2.64       1.8  T
   4   -105.7477890 -0.101097E-05  0.346E-03    2.65       3.5  T
   5   -105.7477893 -0.282512E-06  0.132E-03    2.64       9.1  T
   6   -105.7477893 -0.725586E-07  0.577E-04    2.64      20.8  T
   7   -105.7477894 -0.130460E-07  0.326E-04    2.64      36.9  T
     SCC iter.                  ...        0 min,  0.920 sec
     gradient                   ...        0 min,  0.115 sec
 * total energy  :  -104.1045031 Eh     change       -0.2144556E-03 Eh
   gradient norm :     0.0053945 Eh/α   predicted    -0.1651127E-03 ( -23.01%)
   displ. norm   :     0.5454643 α      lambda       -0.2715621E-03
   maximum displ.:     0.2533036 α      in ANC's #4, #1, #12, ...

........................................................................
.............................. CYCLE   34 ..............................
........................................................................

 iter      E             dE          RMSdq      gap      omega  full diag
   1   -105.7461564 -0.105746E+03  0.730E-02    2.64       0.0  T
   2   -105.7461580 -0.155408E-05  0.419E-02    2.64       1.0  T
   3   -105.7461572  0.768537E-06  0.611E-03    2.64       2.0  T
   4   -105.7461582 -0.994991E-06  0.306E-03    2.64       3.9  T
   5   -105.7461585 -0.228000E-06  0.122E-03    2.64       9.9  T
   6   -105.7461585 -0.354808E-07  0.671E-04    2.64      17.9  T
   7   -105.7461585 -0.144957E-07  0.434E-04    2.64      27.7  T
     SCC iter.                  ...        0 min,  0.865 sec
     gradient                   ...        0 min,  0.115 sec
 * total energy  :  -104.1047196 Eh     change       -0.2165103E-03 Eh
   gradient norm :     0.0054361 Eh/α   predicted    -0.1761806E-03 ( -18.63%)
   displ. norm   :     0.5101722 α      lambda       -0.2740467E-03
   maximum displ.:     0.2492061 α      in ANC's #1, #4, #2, ...

........................................................................
.............................. CYCLE   35 ..............................
........................................................................

 iter      E             dE          RMSdq      gap      omega  full diag
   1   -105.7483312 -0.105748E+03  0.709E-02    2.64       0.0  T
   2   -105.7483330 -0.185065E-05  0.406E-02    2.64       1.0  T
   3   -105.7483320  0.106043E-05  0.668E-03    2.64       1.8  T
   4   -105.7483331 -0.115846E-05  0.319E-03    2.64       3.8  T
   5   -105.7483335 -0.349448E-06  0.147E-03    2.64       8.2  T
   6   -105.7483335 -0.637226E-07  0.812E-04    2.64      14.8  T
   7   -105.7483335 -0.209750E-07  0.479E-04    2.64      25.2  T
     SCC iter.                  ...        0 min,  0.875 sec
     gradient                   ...        0 min,  0.112 sec
 * total energy  :  -104.1049191 Eh     change       -0.1994727E-03 Eh
   gradient norm :     0.0054762 Eh/α   predicted    -0.1726893E-03 ( -13.43%)
   displ. norm   :     0.5400775 α      lambda       -0.2114426E-03
   maximum displ.:     0.2611676 α      in ANC's #1, #4, #2, ...

........................................................................
.............................. CYCLE   36 ..............................
........................................................................

 iter      E             dE          RMSdq      gap      omega  full diag
   1   -105.7443523 -0.105744E+03  0.736E-02    2.64       0.0  T
   2   -105.7443544 -0.214289E-05  0.421E-02    2.64       1.0  T
   3   -105.7443531  0.130971E-05  0.704E-03    2.64       1.7  T
   4   -105.7443548 -0.167862E-05  0.300E-03    2.64       4.0  T
   5   -105.7443550 -0.204630E-06  0.142E-03    2.64       8.5  T
   6   -105.7443550 -0.466036E-07  0.806E-04    2.64      14.9  T
   7   -105.7443550 -0.121476E-07  0.538E-04    2.64      22.4  T
     SCC iter.                  ...        0 min,  0.890 sec
     gradient                   ...        0 min,  0.113 sec
 * total energy  :  -104.1050563 Eh     change       -0.1372569E-03 Eh
   gradient norm :     0.0048025 Eh/α   predicted    -0.1365632E-03 (  -0.51%)
   displ. norm   :     0.3452295 α      lambda       -0.1917525E-03
   maximum displ.:     0.1695572 α      in ANC's #1, #2, #13, ...

........................................................................
.............................. CYCLE   37 ..............................
........................................................................

 iter      E             dE          RMSdq      gap      omega  full diag
   1   -105.7474179 -0.105747E+03  0.519E-02    2.64       0.0  T
   2   -105.7474196 -0.165334E-05  0.297E-02    2.64       1.0  T
   3   -105.7474183  0.122863E-05  0.599E-03    2.64       2.0  T
   4   -105.7474197 -0.140839E-05  0.234E-03    2.64       5.1  T
   5   -105.7474200 -0.226805E-06  0.858E-04    2.64      14.0  T
   6   -105.7474200 -0.122018E-07  0.358E-04    2.64      33.6  T
     SCC iter.                  ...        0 min,  0.552 sec
     gradient                   ...        0 min,  0.113 sec
 * total energy  :  -104.1051678 Eh     change       -0.1114832E-03 Eh
   gradient norm :     0.0056928 Eh/α   predicted    -0.1073060E-03 (  -3.75%)
   displ. norm   :     0.2941475 α      lambda       -0.1227789E-03
   maximum displ.:     0.1555281 α      in ANC's #1, #4, #2, ...

........................................................................
.............................. CYCLE   38 ..............................
........................................................................

 iter      E             dE          RMSdq      gap      omega  full diag
   1   -105.7473606 -0.105747E+03  0.405E-02    2.64       0.0  T
   2   -105.7473613 -0.717612E-06  0.230E-02    2.64       1.0  T
   3   -105.7473603  0.107671E-05  0.487E-03    2.64       2.5  T
   4   -105.7473614 -0.113947E-05  0.229E-03    2.64       5.3  T
   5   -105.7473616 -0.153810E-06  0.959E-04    2.64      12.6  T
   6   -105.7473616 -0.479791E-07  0.362E-04    2.64      33.3  T
     SCC iter.                  ...        0 min,  0.601 sec
     gradient                   ...        0 min,  0.111 sec
 * total energy  :  -104.1052631 Eh     change       -0.9524477E-04 Eh
   gradient norm :     0.0044888 Eh/α   predicted    -0.6670231E-04 ( -29.97%)
   displ. norm   :     0.2966171 α      lambda       -0.1591757E-03
   maximum displ.:     0.1559147 α      in ANC's #1, #4, #2, ...

........................................................................
.............................. CYCLE   39 ..............................
........................................................................

 iter      E             dE          RMSdq      gap      omega  full diag
   1   -105.7482640 -0.105748E+03  0.451E-02    2.64       0.0  T
   2   -105.7482649 -0.947287E-06  0.247E-02    2.64       1.0  T
   3   -105.7482632  0.175918E-05  0.624E-03    2.64       1.9  T
   4   -105.7482647 -0.159078E-05  0.330E-03    2.64       3.7  T
   5   -105.7482653 -0.514284E-06  0.123E-03    2.64       9.8  T
   6   -105.7482653 -0.441319E-07  0.515E-04    2.64      23.4  T
   7   -105.7482653 -0.113430E-07  0.180E-04    2.64      66.8  T
     SCC iter.                  ...        0 min,  0.806 sec
     gradient                   ...        0 min,  0.117 sec
 * total energy  :  -104.1053892 Eh     change       -0.1261391E-03 Eh
   gradient norm :     0.0041715 Eh/α   predicted    -0.8659453E-04 ( -31.35%)
   displ. norm   :     0.3855372 α      lambda       -0.1862393E-03
   maximum displ.:     0.1972109 α      in ANC's #1, #4, #2, ...

........................................................................
.............................. CYCLE   40 ..............................
........................................................................

 iter      E             dE          RMSdq      gap      omega  full diag
   1   -105.7469535 -0.105747E+03  0.618E-02    2.65       0.0  T
   2   -105.7469551 -0.159599E-05  0.331E-02    2.65       1.0  T
   3   -105.7469526  0.250292E-05  0.805E-03    2.65       1.5  T
   4   -105.7469549 -0.226359E-05  0.423E-03    2.65       2.8  T
   5   -105.7469557 -0.774723E-06  0.178E-03    2.65       6.8  T
   6   -105.7469558 -0.110398E-06  0.711E-04    2.65      16.9  T
   7   -105.7469558 -0.233927E-07  0.262E-04    2.65      46.0  T
     SCC iter.                  ...        0 min,  0.911 sec
     gradient                   ...        0 min,  0.115 sec
 * total energy  :  -104.1055304 Eh     change       -0.1411804E-03 Eh
   gradient norm :     0.0051642 Eh/α   predicted    -0.1069632E-03 ( -24.24%)
   displ. norm   :     0.4142973 α      lambda       -0.1706370E-03
   maximum displ.:     0.2162732 α      in ANC's #1, #4, #2, ...

........................................................................
.............................. CYCLE   41 ..............................
........................................................................

 iter      E             dE          RMSdq      gap      omega  full diag
   1   -105.7462610 -0.105746E+03  0.618E-02    2.65       0.0  T
   2   -105.7462628 -0.177134E-05  0.332E-02    2.65       1.0  T
   3   -105.7462611  0.170241E-05  0.807E-03    2.65       1.5  T
   4   -105.7462630 -0.189233E-05  0.373E-03    2.65       3.2  T
   5   -105.7462632 -0.209999E-06  0.195E-03    2.65       6.2  T
   6   -105.7462634 -0.181439E-06  0.673E-04    2.65      17.9  T
   7   -105.7462634 -0.231754E-07  0.242E-04    2.65      49.8  T
     SCC iter.                  ...        0 min,  0.863 sec
     gradient                   ...        0 min,  0.113 sec
 * total energy  :  -104.1056569 Eh     change       -0.1265548E-03 Eh
   gradient norm :     0.0055874 Eh/α   predicted    -0.9996729E-04 ( -21.01%)
   displ. norm   :     0.3983294 α      lambda       -0.1501640E-03
   maximum displ.:     0.2127313 α      in ANC's #1, #4, #2, ...

........................................................................
.............................. CYCLE   42 ..............................
........................................................................

 iter      E             dE          RMSdq      gap      omega  full diag
   1   -105.7447199 -0.105745E+03  0.578E-02    2.65       0.0  T
   2   -105.7447211 -0.121641E-05  0.317E-02    2.65       1.0  T
   3   -105.7447203  0.861171E-06  0.641E-03    2.65       1.9  T
   4   -105.7447213 -0.104651E-05  0.303E-03    2.65       4.0  T
   5   -105.7447215 -0.143034E-06  0.117E-03    2.65      10.3  T
   6   -105.7447215 -0.599091E-07  0.404E-04    2.65      29.8  T
   7   -105.7447215 -0.569953E-08  0.236E-04    2.65      51.0  T
     SCC iter.                  ...        0 min,  0.771 sec
     gradient                   ...        0 min,  0.110 sec
 * total energy  :  -104.1057716 Eh     change       -0.1146778E-03 Eh
   gradient norm :     0.0052160 Eh/α   predicted    -0.8699655E-04 ( -24.14%)
   displ. norm   :     0.3765597 α      lambda       -0.1730137E-03
   maximum displ.:     0.2067965 α      in ANC's #1, #4, #2, ...
 * RMSD in coord.:     0.9243478 α      energy gain  -0.6544778E-02 Eh

generating ANC from exact Hessian ...
Using Lindh-Hessian (1995)
 Shifting diagonal of input Hessian by    9.9591161545142925E-003
 Lowest  eigenvalues of input Hessian
    0.000000    0.000000    0.000000    0.000000    0.000000    0.000000
    0.010000    0.010061    0.010284    0.010311    0.010368    0.010409
    0.010803    0.010975    0.011205    0.011312    0.011550    0.011777
 Highest eigenvalues
    2.015397    2.044789    2.074972    2.111091    2.122957    2.233362


........................................................................
.............................. CYCLE   43 ..............................
........................................................................

 iter      E             dE          RMSdq      gap      omega  full diag
   1   -105.7462668 -0.105746E+03  0.520E-02    2.65       0.0  T
   2   -105.7462678 -0.100424E-05  0.289E-02    2.65       1.0  T
   3   -105.7462666  0.118821E-05  0.680E-03    2.65       1.8  T
   4   -105.7462680 -0.141382E-05  0.302E-03    2.65       4.0  T
   5   -105.7462681 -0.789237E-07  0.107E-03    2.65      11.2  T
   6   -105.7462682 -0.696993E-07  0.507E-04    2.65      23.7  T
   7   -105.7462682 -0.143089E-07  0.253E-04    2.65      47.6  T
     SCC iter.                  ...        0 min,  0.949 sec
     gradient                   ...        0 min,  0.119 sec
 * total energy  :  -104.1058999 Eh     change       -0.1283247E-03 Eh
   gradient norm :     0.0043626 Eh/α   predicted     0.0000000E+00 (-100.00%)
   displ. norm   :     0.0614404 α      lambda       -0.8344009E-04
   maximum displ.:     0.0257794 α      in ANC's #24, #1, #27, ...

........................................................................
.............................. CYCLE   44 ..............................
........................................................................

 iter      E             dE          RMSdq      gap      omega  full diag
   1   -105.7476486 -0.105748E+03  0.151E-02    2.65       0.0  T
   2   -105.7476489 -0.211550E-06  0.825E-03    2.65       1.5  T
   3   -105.7476487  0.158913E-06  0.246E-03    2.65       4.9  T
   4   -105.7476489 -0.196889E-06  0.938E-04    2.65      12.8  T
   5   -105.7476489 -0.170216E-07  0.443E-04    2.65      27.2  T
     SCC iter.                  ...        0 min,  0.578 sec
     gradient                   ...        0 min,  0.113 sec
 * total energy  :  -104.1059721 Eh     change       -0.7216370E-04 Eh
   gradient norm :     0.0024060 Eh/α   predicted    -0.4223503E-04 ( -41.47%)
   displ. norm   :     0.2441957 α      lambda       -0.2319324E-03
   maximum displ.:     0.1024826 α      in ANC's #24, #1, #27, ...

........................................................................
.............................. CYCLE   45 ..............................
........................................................................

 iter      E             dE          RMSdq      gap      omega  full diag
   1   -105.7497553 -0.105750E+03  0.478E-02    2.65       0.0  T
   2   -105.7497571 -0.176920E-05  0.271E-02    2.65       1.0  T
   3   -105.7497550  0.209031E-05  0.816E-03    2.65       1.5  T
   4   -105.7497575 -0.253431E-05  0.253E-03    2.65       4.8  T
   5   -105.7497577 -0.158232E-06  0.116E-03    2.65      10.4  T
   6   -105.7497577 -0.402918E-07  0.389E-04    2.65      31.0  T
   7   -105.7497577 -0.198234E-08  0.253E-04    2.65      47.6  T
     SCC iter.                  ...        0 min,  0.754 sec
     gradient                   ...        0 min,  0.115 sec
 * total energy  :  -104.1061235 Eh     change       -0.1513520E-03 Eh
   gradient norm :     0.0040292 Eh/α   predicted    -0.1228912E-03 ( -18.80%)
   displ. norm   :     0.1910032 α      lambda       -0.1024230E-03
   maximum displ.:     0.0784710 α      in ANC's #1, #24, #3, ...

........................................................................
.............................. CYCLE   46 ..............................
........................................................................

 iter      E             dE          RMSdq      gap      omega  full diag
   1   -105.7496465 -0.105750E+03  0.385E-02    2.65       0.0  T
   2   -105.7496474 -0.883370E-06  0.210E-02    2.65       1.0  T
   3   -105.7496469  0.465358E-06  0.504E-03    2.65       2.4  T
   4   -105.7496474 -0.536783E-06  0.236E-03    2.65       5.1  T
   5   -105.7496476 -0.135395E-06  0.965E-04    2.65      12.5  T
   6   -105.7496476 -0.243308E-07  0.387E-04    2.65      31.1  T
     SCC iter.                  ...        0 min,  0.730 sec
     gradient                   ...        0 min,  0.110 sec
 * total energy  :  -104.1062004 Eh     change       -0.7696076E-04 Eh
   gradient norm :     0.0050893 Eh/α   predicted    -0.5308913E-04 ( -31.02%)
   displ. norm   :     0.2671979 α      lambda       -0.1358256E-03
   maximum displ.:     0.1195172 α      in ANC's #1, #24, #3, ...

........................................................................
.............................. CYCLE   47 ..............................
........................................................................

 iter      E             dE          RMSdq      gap      omega  full diag
   1   -105.7484687 -0.105748E+03  0.451E-02    2.65       0.0  T
   2   -105.7484692 -0.530747E-06  0.260E-02    2.65       1.0  T
   3   -105.7484687  0.490085E-06  0.417E-03    2.65       2.9  T
   4   -105.7484693 -0.528680E-06  0.209E-03    2.65       5.8  T
   5   -105.7484694 -0.138679E-06  0.872E-04    2.65      13.8  T
   6   -105.7484694 -0.103338E-07  0.526E-04    2.65      22.9  T
     SCC iter.                  ...        0 min,  0.770 sec
     gradient                   ...        0 min,  0.114 sec
 * total energy  :  -104.1062966 Eh     change       -0.9614189E-04 Eh
   gradient norm :     0.0046316 Eh/α   predicted    -0.7278736E-04 ( -24.29%)
   displ. norm   :     0.2360871 α      lambda       -0.1204454E-03
   maximum displ.:     0.1149406 α      in ANC's #1, #3, #2, ...

........................................................................
.............................. CYCLE   48 ..............................
........................................................................

 iter      E             dE          RMSdq      gap      omega  full diag
   1   -105.7476242 -0.105748E+03  0.446E-02    2.65       0.0  T
   2   -105.7476253 -0.114632E-05  0.249E-02    2.65       1.0  T
   3   -105.7476246  0.676300E-06  0.579E-03    2.65       2.1  T
   4   -105.7476252 -0.614782E-06  0.304E-03    2.65       4.0  T
   5   -105.7476256 -0.360220E-06  0.120E-03    2.65      10.0  T
   6   -105.7476256 -0.199630E-07  0.693E-04    2.65      17.4  T
   7   -105.7476256 -0.127299E-07  0.432E-04    2.65      27.9  T
     SCC iter.                  ...        0 min,  1.059 sec
     gradient                   ...        0 min,  0.118 sec
 * total energy  :  -104.1063761 Eh     change       -0.7956425E-04 Eh
   gradient norm :     0.0028817 Eh/α   predicted    -0.6358476E-04 ( -20.08%)
   displ. norm   :     0.1979052 α      lambda       -0.7619194E-04
   maximum displ.:     0.1041614 α      in ANC's #1, #3, #2, ...

........................................................................
.............................. CYCLE   49 ..............................
........................................................................

 iter      E             dE          RMSdq      gap      omega  full diag
   1   -105.7476530 -0.105748E+03  0.405E-02    2.65       0.0  T
   2   -105.7476537 -0.777889E-06  0.219E-02    2.65       1.0  T
   3   -105.7476533  0.438983E-06  0.500E-03    2.65       2.4  T
   4   -105.7476538 -0.520694E-06  0.234E-03    2.65       5.1  T
   5   -105.7476539 -0.106351E-06  0.889E-04    2.65      13.5  T
   6   -105.7476539 -0.203059E-07  0.303E-04    2.65      39.8  T
     SCC iter.                  ...        0 min,  0.782 sec
     gradient                   ...        0 min,  0.111 sec
 * total energy  :  -104.1064324 Eh     change       -0.5628390E-04 Eh
   gradient norm :     0.0024762 Eh/α   predicted    -0.3958886E-04 ( -29.66%)
   displ. norm   :     0.2166752 α      lambda       -0.7330361E-04
   maximum displ.:     0.1152414 α      in ANC's #1, #3, #2, ...

........................................................................
.............................. CYCLE   50 ..............................
........................................................................

 iter      E             dE          RMSdq      gap      omega  full diag
   1   -105.7479902 -0.105748E+03  0.399E-02    2.65       0.0  T
   2   -105.7479911 -0.916157E-06  0.220E-02    2.65       1.0  T
   3   -105.7479907  0.437102E-06  0.550E-03    2.65       2.2  T
   4   -105.7479911 -0.484236E-06  0.276E-03    2.65       4.4  T
   5   -105.7479913 -0.169448E-06  0.126E-03    2.65       9.6  T
   6   -105.7479913 -0.439502E-07  0.636E-04    2.65      18.9  T
   7   -105.7479914 -0.170628E-08  0.476E-04    2.65      25.3  T
     SCC iter.                  ...        0 min,  0.945 sec
     gradient                   ...        0 min,  0.115 sec
 * total energy  :  -104.1064911 Eh     change       -0.5873566E-04 Eh
   gradient norm :     0.0025365 Eh/α   predicted    -0.3837322E-04 ( -34.67%)
   displ. norm   :     0.2749457 α      lambda       -0.9013592E-04
   maximum displ.:     0.1481344 α      in ANC's #1, #2, #3, ...

........................................................................
.............................. CYCLE   51 ..............................
........................................................................

 iter      E             dE          RMSdq      gap      omega  full diag
   1   -105.7488182 -0.105749E+03  0.538E-02    2.65       0.0  T
   2   -105.7488197 -0.153143E-05  0.283E-02    2.66       1.0  T
   3   -105.7488193  0.415432E-06  0.634E-03    2.65       1.9  T
   4   -105.7488198 -0.470386E-06  0.314E-03    2.66       3.8  T
   5   -105.7488200 -0.248549E-06  0.126E-03    2.66       9.5  T
   6   -105.7488201 -0.668376E-07  0.491E-04    2.66      24.5  T
   7   -105.7488201 -0.663640E-08  0.273E-04    2.66      44.0  T
     SCC iter.                  ...        0 min,  0.978 sec
     gradient                   ...        0 min,  0.113 sec
 * total energy  :  -104.1065628 Eh     change       -0.7163584E-04 Eh
   gradient norm :     0.0031796 Eh/α   predicted    -0.4848088E-04 ( -32.32%)
   displ. norm   :     0.3216024 α      lambda       -0.9441559E-04
   maximum displ.:     0.1755164 α      in ANC's #1, #2, #3, ...

........................................................................
.............................. CYCLE   52 ..............................
........................................................................

 iter      E             dE          RMSdq      gap      omega  full diag
   1   -105.7488753 -0.105749E+03  0.562E-02    2.66       0.0  T
   2   -105.7488766 -0.134493E-05  0.305E-02    2.66       1.0  T
   3   -105.7488764  0.212145E-06  0.591E-03    2.66       2.0  T
   4   -105.7488765 -0.127545E-06  0.335E-03    2.66       3.6  T
   5   -105.7488769 -0.333237E-06  0.149E-03    2.66       8.1  T
   6   -105.7488769 -0.913550E-07  0.699E-04    2.66      17.2  T
   7   -105.7488770 -0.837574E-08  0.496E-04    2.66      24.3  T
     SCC iter.                  ...        0 min,  0.873 sec
     gradient                   ...        0 min,  0.115 sec
 * total energy  :  -104.1066404 Eh     change       -0.7760927E-04 Eh
   gradient norm :     0.0036053 Eh/α   predicted    -0.5209400E-04 ( -32.88%)
   displ. norm   :     0.3579901 α      lambda       -0.1110805E-03
   maximum displ.:     0.1988102 α      in ANC's #1, #2, #3, ...

........................................................................
.............................. CYCLE   53 ..............................
........................................................................

 iter      E             dE          RMSdq      gap      omega  full diag
   1   -105.7496825 -0.105750E+03  0.606E-02    2.66       0.0  T
   2   -105.7496839 -0.138768E-05  0.328E-02    2.66       1.0  T
   3   -105.7496834  0.445530E-06  0.608E-03    2.66       2.0  T
   4   -105.7496837 -0.237164E-06  0.367E-03    2.66       3.3  T
   5   -105.7496842 -0.548806E-06  0.118E-03    2.66      10.2  T
   6   -105.7496843 -0.588892E-07  0.556E-04    2.66      21.7  T
   7   -105.7496843 -0.135853E-07  0.306E-04    2.66      39.4  T
     SCC iter.                  ...        0 min,  0.906 sec
     gradient                   ...        0 min,  0.111 sec
 * total energy  :  -104.1067327 Eh     change       -0.9233755E-04 Eh
   gradient norm :     0.0039683 Eh/α   predicted    -0.6266268E-04 ( -32.14%)
   displ. norm   :     0.4143027 α      lambda       -0.1323107E-03
   maximum displ.:     0.2358267 α      in ANC's #1, #2, #3, ...

........................................................................
.............................. CYCLE   54 ..............................
........................................................................

 iter      E             dE          RMSdq      gap      omega  full diag
   1   -105.7488481 -0.105749E+03  0.671E-02    2.66       0.0  T
   2   -105.7488497 -0.163760E-05  0.372E-02    2.66       1.0  T
   3   -105.7488485  0.123587E-05  0.710E-03    2.66       1.7  T
   4   -105.7488498 -0.129109E-05  0.383E-03    2.66       3.1  T
   5   -105.7488502 -0.426662E-06  0.117E-03    2.66      10.3  T
[...]

           -------------------------------------------------
          |                Property Printout                |
           -------------------------------------------------

    * Orbital Energies and Occupations

         #    Occupation            Energy/Eh            Energy/eV
      -------------------------------------------------------------
         1        2.0000           -0.8834721             -24.0405
       ...           ...                  ...                  ...
        84        2.0000           -0.5256294             -14.3031
        85        2.0000           -0.5247023             -14.2779
        86        2.0000           -0.5235928             -14.2477
        87        2.0000           -0.5216573             -14.1950
        88        2.0000           -0.5164196             -14.0525
        89        2.0000           -0.5144575             -13.9991
        90        2.0000           -0.5110547             -13.9065
        91        2.0000           -0.5091427             -13.8545
        92        2.0000           -0.5083572             -13.8331
        93        2.0000           -0.5058337             -13.7644
        94        2.0000           -0.4888137             -13.3013
        95        2.0000           -0.4849114             -13.1951
        96        2.0000           -0.4804135             -13.0727 (HOMO)
        97                         -0.3827465             -10.4151 (LUMO)
        98                         -0.3745270             -10.1914
        99                         -0.3654394              -9.9441
       100                         -0.3587205              -9.7613
       101                         -0.3416287              -9.2962
       102                         -0.3380621              -9.1991
       103                         -0.3293881              -8.9631
       104                         -0.3245436              -8.8313
       105                         -0.3062853              -8.3344
       106                         -0.2919920              -7.9455
       107                         -0.2891621              -7.8685
       ...                                ...                  ...
       198                          1.1753152              31.9820
      -------------------------------------------------------------
                  HL-Gap            0.0976670 Eh            2.6577 eV
             Fermi-level           -0.4315800 Eh          -11.7439 eV

     #   Z          covCN         q      C6AA      α(0)
     1   6 C        3.753    -0.124    22.939     6.830
     2   6 C        4.025     0.048    19.694     6.304
     3   6 C        3.755    -0.121    22.868     6.819
     4   7 N        2.681    -0.162    24.515     7.354
     5   6 C        3.936     0.045    19.750     6.315
     6   6 C        3.755    -0.125    22.957     6.832
     7   6 C        3.763    -0.125    22.935     6.826
     8  15 P        4.483     0.513   139.411    21.210
     9  34 Se       1.895     0.008   235.424    26.736
    10  16 S        2.033    -0.057   143.416    20.156
    11   6 C        2.974     0.041    27.080     8.536
    12   6 C        2.969    -0.031    28.770     8.798
    13   6 C        2.922    -0.022    28.566     8.765
    14   6 C        2.919    -0.023    28.585     8.768
    15   6 C        2.923    -0.023    28.569     8.765
    16   6 C        2.946    -0.031    28.763     8.796
    17   8 O        1.658    -0.253    18.208     5.760
    18   6 C        3.227     0.122    24.607     8.058
    19   6 C        2.911    -0.048    29.200     8.861
    20   6 C        2.922    -0.027    28.677     8.782
    21   6 C        2.985     0.016    27.642     8.624
    22   6 C        2.920    -0.027    28.681     8.782
    23   6 C        2.915    -0.020    28.497     8.754
    24   6 C        2.916    -0.021    28.523     8.758
    25   6 C        2.916    -0.032    28.788     8.798
    26   6 C        2.989     0.013    27.704     8.634
    27   6 C        2.971    -0.008    28.226     8.715
    28   6 C        2.971    -0.008    28.222     8.714
    29   6 C        3.145     0.126    25.009     8.182
    30   6 C        2.911    -0.051    29.258     8.870
    31   6 C        2.922    -0.030    28.756     8.794
    32   6 C        2.985     0.015    27.673     8.629
    33   6 C        2.920    -0.028    28.708     8.786
    34   6 C        2.915    -0.019    28.493     8.753
    35   6 C        2.917    -0.020    28.500     8.754
    36   6 C        2.916    -0.030    28.748     8.792
    37   6 C        2.989     0.014    27.698     8.633
    38   8 O        1.659    -0.277    18.607     5.823
    39   1 H        0.924     0.047     2.352     2.398
    40   1 H        0.925     0.070     2.081     2.256
    41   1 H        0.925     0.061     2.187     2.313
    42   1 H        0.924     0.050     2.315     2.380
    43   1 H        0.925     0.061     2.189     2.314
    44   1 H        0.925     0.067     2.116     2.275
    45   1 H        0.925     0.055     2.257     2.349
    46   1 H        0.924     0.067     2.123     2.278
    47   1 H        0.925     0.057     2.234     2.338
    48   1 H        0.925     0.068     2.113     2.273
    49   1 H        0.925     0.060     2.193     2.316
    50   1 H        0.925     0.075     2.031     2.228
    51   1 H        0.925     0.057     2.237     2.339
    52   1 H        0.925     0.053     2.283     2.363
    53   1 H        0.926     0.043     2.403     2.424
    54   1 H        0.926     0.052     2.298     2.370
    55   1 H        0.926     0.057     2.238     2.339
    56   1 H        0.926     0.057     2.240     2.340
    57   1 H        0.925     0.053     2.279     2.361
    58   1 H        0.926     0.061     2.189     2.314
    59   1 H        0.926     0.068     2.105     2.269
    60   1 H        0.926     0.056     2.248     2.344
    61   1 H        0.926     0.057     2.230     2.335
    62   1 H        0.926     0.053     2.285     2.364
    63   1 H        0.926     0.042     2.419     2.432
    64   1 H        0.926     0.057     2.231     2.336
    65   1 H        0.926     0.065     2.141     2.288
    66   1 H        0.926     0.054     2.270     2.356
    67   1 H        0.926     0.057     2.229     2.335
    68   1 H        0.926     0.055     2.261     2.351
    69   1 H        0.926     0.045     2.384     2.415

 Mol. C6AA /au·bohr⁶  :      69903.348764
 Mol. C8AA /au·bohr⁸  :    1997666.412387
 Mol. α(0) /au        :        425.457849


Wiberg/Mayer (AO) data.
largest (>0.10) Wiberg bond orders for each atom

 ---------------------------------------------------------------------------
     #   Z sym  total        # sym  WBO       # sym  WBO       # sym  WBO
 ---------------------------------------------------------------------------
     1   6 C    3.988 --     2 C    1.006    41 H    0.980    40 H    0.979
                            39 H    0.970
     2   6 C    3.956 --     1 C    1.006     3 C    1.002    42 H    0.948
                             4 N    0.940
     3   6 C    3.984 --     2 C    1.002    45 H    0.983    43 H    0.980
                            44 H    0.979
     4   7 N    3.391 --     8 P    1.247     2 C    0.940     5 C    0.937
     5   6 C    3.954 --     7 C    1.008     6 C    1.006    46 H    0.955
                             4 N    0.937
     6   6 C    3.988 --     5 C    1.006    47 H    0.984    48 H    0.979
                            49 H    0.978
     7   6 C    3.989 --     5 C    1.008    50 H    0.977    52 H    0.971
                            51 H    0.966
     8  15 P    5.076 --    17 O    1.294    38 O    1.293     4 N    1.247
                             9 Se   0.919
     9  34 Se   2.502 --    10 S    1.232     8 P    0.919
    10  16 S    2.395 --     9 Se   1.232    11 C    0.973
    11   6 C    3.954 --    16 C    1.408    12 C    1.405    10 S    0.973
                            14 C    0.103
    12   6 C    3.990 --    13 C    1.438    11 C    1.405    53 H    0.964
                            15 C    0.109
    13   6 C    3.987 --    14 C    1.439    12 C    1.438    54 H    0.968
                            16 C    0.110
    14   6 C    3.982 --    13 C    1.439    15 C    1.433    55 H    0.969
                            11 C    0.103
    15   6 C    3.990 --    16 C    1.443    14 C    1.433    56 H    0.967
                            12 C    0.109
    16   6 C    3.989 --    15 C    1.443    11 C    1.408    57 H    0.958
                            13 C    0.110
    17   8 O    2.409 --     8 P    1.294    18 C    0.883
    18   6 C    3.876 --    27 C    1.459    19 C    1.302    17 O    0.883
    19   6 C    3.986 --    20 C    1.543    18 C    1.302    58 H    0.963
    20   6 C    3.982 --    19 C    1.543    21 C    1.279    59 H    0.965
                            27 C    0.108
    21   6 C    3.989 --    20 C    1.279    22 C    1.279    26 C    1.251
    22   6 C    3.988 --    23 C    1.556    21 C    1.279    60 H    0.966
                            25 C    0.117
    23   6 C    3.987 --    22 C    1.556    24 C    1.322    61 H    0.969
    24   6 C    3.988 --    25 C    1.551    23 C    1.322    62 H    0.969
    25   6 C    3.990 --    24 C    1.551    26 C    1.283    63 H    0.965
                            22 C    0.117
    26   6 C    3.986 --    25 C    1.283    21 C    1.251    27 C    1.233
    27   6 C    3.985 --    18 C    1.459    26 C    1.233    28 C    1.032
                            20 C    0.108
    28   6 C    3.985 --    29 C    1.464    37 C    1.230    27 C    1.032
                            31 C    0.109
    29   6 C    3.875 --    28 C    1.464    30 C    1.301    38 O    0.874
    30   6 C    3.983 --    31 C    1.543    29 C    1.301    64 H    0.963
    31   6 C    3.981 --    30 C    1.543    32 C    1.279    65 H    0.965
                            28 C    0.109
    32   6 C    3.989 --    33 C    1.280    31 C    1.279    37 C    1.251
    33   6 C    3.988 --    34 C    1.555    32 C    1.280    66 H    0.966
                            36 C    0.117
    34   6 C    3.987 --    33 C    1.555    35 C    1.323    67 H    0.969
    35   6 C    3.987 --    36 C    1.551    34 C    1.323    68 H    0.969
    36   6 C    3.990 --    35 C    1.551    37 C    1.287    69 H    0.965
                            33 C    0.117
    37   6 C    3.986 --    36 C    1.287    32 C    1.251    28 C    1.230
    38   8 O    2.392 --     8 P    1.293    29 C    0.874
    39   1 H    0.998 --     1 C    0.970
    40   1 H    0.995 --     1 C    0.979
    41   1 H    0.996 --     1 C    0.980
    42   1 H    0.997 --     2 C    0.948
    43   1 H    0.996 --     3 C    0.980
    44   1 H    0.994 --     3 C    0.979
    45   1 H    0.997 --     3 C    0.983
    46   1 H    0.995 --     5 C    0.955
    47   1 H    0.997 --     6 C    0.984
    48   1 H    0.994 --     6 C    0.979
    49   1 H    0.996 --     6 C    0.978
    50   1 H    0.994 --     7 C    0.977
    51   1 H    0.997 --     7 C    0.966
    52   1 H    0.997 --     7 C    0.971
    53   1 H    0.998 --    12 C    0.964
    54   1 H    0.997 --    13 C    0.968
    55   1 H    0.996 --    14 C    0.969
    56   1 H    0.997 --    15 C    0.967
    57   1 H    0.997 --    16 C    0.958
    58   1 H    0.995 --    19 C    0.963
    59   1 H    0.994 --    20 C    0.965
    60   1 H    0.996 --    22 C    0.966
    61   1 H    0.996 --    23 C    0.969
    62   1 H    0.997 --    24 C    0.969
    63   1 H    0.998 --    25 C    0.965
    64   1 H    0.995 --    30 C    0.963
    65   1 H    0.994 --    31 C    0.965
    66   1 H    0.996 --    33 C    0.966
    67   1 H    0.996 --    34 C    0.969
    68   1 H    0.996 --    35 C    0.969
    69   1 H    0.997 --    36 C    0.965
 ---------------------------------------------------------------------------

Topologies differ in total number of bonds
Writing topology from bond orders to xtbtopo.mol

molecular dipole:
                 x           y           z       tot (Debye)
 q only:        0.354      -0.873       0.045
   full:        0.458      -0.878       0.167       2.552
molecular quadrupole (traceless):
                xx          xy          yy          xz          yz          zz
 q only:       -1.013     -21.201      10.645      -0.440      -1.392      -9.632
  q+dip:       -3.179     -24.843       7.085       2.197      -1.179      -3.906
   full:       -2.210     -20.730      10.959       1.948      -0.256      -8.750

           -------------------------------------------------
          |                Geometry Summary                 |
           -------------------------------------------------

      molecular mass/u    :      603.5931631
   center of mass at/Å    :        0.3189299       0.3010456      -0.3651382
  moments of inertia/u·Å² :        0.4516629E+04   0.5849916E+04   0.6876439E+04
rotational constants/cm⁻¹ :        0.3732348E-02   0.2881688E-02   0.2451506E-02

 * 70 selected distances

     #   Z          #   Z                                           value/Å
     1   6 C        2   6 C                                       1.5248343
     2   6 C        3   6 C                                       1.5255051
     2   6 C        4   7 N                                       1.4731871
     4   7 N        5   6 C                                       1.4725807
     5   6 C        6   6 C                                       1.5243650
     5   6 C        7   6 C                                       1.5232588
     4   7 N        8  15 P                                       1.6377424
     8  15 P        9  34 Se                                      2.2739841 (max)
    11   6 C       12   6 C                                       1.3854076
    12   6 C       13   6 C                                       1.3839789
    13   6 C       14   6 C                                       1.3849474
    14   6 C       15   6 C                                       1.3858943
    11   6 C       16   6 C                                       1.3845185
    15   6 C       16   6 C                                       1.3831997
     8  15 P       17   8 O                                       1.5789952
    17   8 O       18   6 C                                       1.4185860
    18   6 C       19   6 C                                       1.3995044
    19   6 C       20   6 C                                       1.3660910
    20   6 C       21   6 C                                       1.4104081
    21   6 C       22   6 C                                       1.4110996
    22   6 C       23   6 C                                       1.3665562
    23   6 C       24   6 C                                       1.4031827
    24   6 C       25   6 C                                       1.3677404
    21   6 C       26   6 C                                       1.4220186
    25   6 C       26   6 C                                       1.4120011
    18   6 C       27   6 C                                       1.3750563
    26   6 C       27   6 C                                       1.4242659
    28   6 C       29   6 C                                       1.3745454
    29   6 C       30   6 C                                       1.3986231
    30   6 C       31   6 C                                       1.3662201
    31   6 C       32   6 C                                       1.4103642
    32   6 C       33   6 C                                       1.4110264
    33   6 C       34   6 C                                       1.3666378
    34   6 C       35   6 C                                       1.4029665
    35   6 C       36   6 C                                       1.3677310
    28   6 C       37   6 C                                       1.4250356
    32   6 C       37   6 C                                       1.4217202
    36   6 C       37   6 C                                       1.4111348
     8  15 P       38   8 O                                       1.5800306
     1   6 C       39   1 H                                       1.0904151
     1   6 C       40   1 H                                       1.0865233
     1   6 C       41   1 H                                       1.0865731
     2   6 C       42   1 H                                       1.0971230
     3   6 C       43   1 H                                       1.0863652
     3   6 C       44   1 H                                       1.0863713
     3   6 C       45   1 H                                       1.0872752
     5   6 C       46   1 H                                       1.0922439
     6   6 C       47   1 H                                       1.0867645
     6   6 C       48   1 H                                       1.0865985
     6   6 C       49   1 H                                       1.0855879
     7   6 C       50   1 H                                       1.0870499
     7   6 C       51   1 H                                       1.0883883
     7   6 C       52   1 H                                       1.0901956
    12   6 C       53   1 H                                       1.0794263
    13   6 C       54   1 H                                       1.0790833
    14   6 C       55   1 H                                       1.0789095
    15   6 C       56   1 H                                       1.0791160
    16   6 C       57   1 H                                       1.0817671
    19   6 C       58   1 H                                       1.0788989
    20   6 C       59   1 H                                       1.0785408
    22   6 C       60   1 H                                       1.0793355
    23   6 C       61   1 H                                       1.0787963
    24   6 C       62   1 H                                       1.0791543
    25   6 C       63   1 H                                       1.0793180
    30   6 C       64   1 H                                       1.0782559 (min)
    31   6 C       65   1 H                                       1.0789990
    33   6 C       66   1 H                                       1.0795393
    34   6 C       67   1 H                                       1.0788611
    35   6 C       68   1 H                                       1.0790193
    36   6 C       69   1 H                                       1.0788976

 * 7 distinct bonds (by element types)

   Z      Z             #   av. dist./Å        max./Å        min./Å
   1 H    6 C          31     1.0833353     1.0971230     1.0782559
   6 C    6 C          32     1.4099950     1.5255051     1.3660910
   6 C    7 N           2     1.4728839     1.4731871     1.4725807
   6 C    8 O           1     1.4185860     1.4185860     1.4185860
   7 N   15 P           1     1.6377424     1.6377424     1.6377424
   8 O   15 P           2     1.5795129     1.5800306     1.5789952
  15 P   34 Se          1     2.2739841     2.2739841     2.2739841


optimized geometry written to: xtbopt.xyz


           -------------------------------------------------
          | TOTAL ENERGY             -104.110343731896 Eh   |
          | GRADIENT NORM               0.000016542778 Eh/α |
          | HOMO-LUMO GAP               2.657655212749 eV   |
           -------------------------------------------------

------------------------------------------------------------------------
 * finished run on 2024/12/16 at 19:56:53.075     
------------------------------------------------------------------------
 total:
 * wall-time:     0 d,  0 h,  2 min, 37.737 sec
 *  cpu-time:     0 d,  0 h, 20 min, 50.730 sec
 * ratio c/w:     7.929 speedup
 SCF:
 * wall-time:     0 d,  0 h,  0 min,  2.162 sec
 *  cpu-time:     0 d,  0 h,  0 min, 17.219 sec
 * ratio c/w:     7.966 speedup
 ANC optimizer:
 * wall-time:     0 d,  0 h,  2 min, 35.409 sec
 *  cpu-time:     0 d,  0 h, 20 min, 32.270 sec
 * ratio c/w:     7.929 speedup

