      -----------------------------------------------------------      
     |                   =====================                   |     
     |                           x T B                           |     
     |                   =====================                   |     
     |                         S. Grimme                         |     
     |          Mulliken Center for Theoretical Chemistry        |     
     |                    University of Bonn                     |     
      -----------------------------------------------------------      

   * xtb version 6.7.1 (edcfbbe) compiled by 'conda@3ef47c1a292c' on 2024-11-25

   xtb is free software: you can redistribute it and/or modify it under
   the terms of the GNU Lesser General Public License as published by
   the Free Software Foundation, either version 3 of the License, or
   (at your option) any later version.
   
   xtb is distributed in the hope that it will be useful,
   but WITHOUT ANY WARRANTY; without even the implied warranty of
   MERCHANTABILITY or FITNESS FOR A PARTICULAR PURPOSE.  See the
   GNU Lesser General Public License for more details.
   
   Cite this work as:
   * C. Bannwarth, E. Caldeweyher, S. Ehlert, A. Hansen, P. Pracht,
     J. Seibert, S. Spicher, S. Grimme, WIREs Comput. Mol. Sci., 2020, 11,
     e01493. DOI: 10.1002/wcms.1493
   
   for GFN2-xTB:
   * C. Bannwarth, S. Ehlert and S. Grimme., J. Chem. Theory Comput., 2019,
     15, 1652-1671. DOI: 10.1021/acs.jctc.8b01176
   for GFN1-xTB:
   * S. Grimme, C. Bannwarth, P. Shushkov, J. Chem. Theory Comput., 2017,
     13, 1989-2009. DOI: 10.1021/acs.jctc.7b00118
   for GFN0-xTB:
   * P. Pracht, E. Caldeweyher, S. Ehlert, S. Grimme, ChemRxiv, 2019, preprint.
     DOI: 10.26434/chemrxiv.8326202.v1
   for GFN-FF:
   * S. Spicher and S. Grimme, Angew. Chem. Int. Ed., 2020, 59, 15665-15673.
     DOI: 10.1002/anie.202004239
   
   for ALPB and GBSA implicit solvation:
   * S. Ehlert, M. Stahn, S. Spicher, S. Grimme, J. Chem. Theory Comput.,
     2021, 17, 4250-4261. DOI: 10.1021/acs.jctc.1c00471
   
   for ddCOSMO and CPCM-X implicit solvation:
   * M. Stahn, S. Ehlert, S. Grimme, J. Phys. Chem. A,
     2023, XX, XXXX-XXXX. DOI: 10.1021/acs.jpca.3c04382
   
   for DFT-D4:
   * E. Caldeweyher, C. Bannwarth and S. Grimme, J. Chem. Phys., 2017,
     147, 034112. DOI: 10.1063/1.4993215
   * E. Caldeweyher, S. Ehlert, A. Hansen, H. Neugebauer, S. Spicher,
     C. Bannwarth and S. Grimme, J. Chem. Phys., 2019, 150, 154122.
     DOI: 10.1063/1.5090222
   * E. Caldeweyher, J.-M. Mewes, S. Ehlert and S. Grimme, Phys. Chem. Chem. Phys.
     2020, 22, 8499-8512. DOI: 10.1039/D0CP00502A
   
   for sTDA-xTB:
   * S. Grimme and C. Bannwarth, J. Chem. Phys., 2016, 145, 054103.
     DOI: 10.1063/1.4959605
   
   in the mass-spec context:
   * V. Asgeirsson, C. Bauer and S. Grimme, Chem. Sci., 2017, 8, 4879.
     DOI: 10.1039/c7sc00601b
   * J. Koopman and S. Grimme, ACS Omega 2019, 4, 12, 15120-15133.
     DOI: 10.1021/acsomega.9b02011
   
   for metadynamics refer to:
   * S. Grimme, J. Chem. Theory Comput., 2019, 155, 2847-2862
     DOI: 10.1021/acs.jctc.9b00143
   
   for SPH calculations refer to:
   * S. Spicher and S. Grimme, J. Chem. Theory Comput., 2021, 17, 1701-1714
     DOI: 10.1021/acs.jctc.0c01306
   
   for ONIOM refer to:
   * C. Plett, A. Katbashev, S. Ehlert, S. Grimme, M. Bursch,
     Phys. Chem. Chem. Phys., 2023, 25, 17860-17868. DOI: 10.1039/D3CP02178E
   
   for DIPRO refer to:
   * J. Kohn, N. Gildemeister, S. Grimme, D. Fazzi, A. Hansen,
     J. Chem. Phys., 2023, just accepted.
   
   for PTB refer to:
   * S. Grimme, M. Mueller, A. Hansen, J. Chem. Phys., 2023, 158, 124111.
     DOI: 10.1063/5.0137838
   
   with help from (in alphabetical order)
   P. Atkinson, C. Bannwarth, F. Bohle, G. Brandenburg, E. Caldeweyher
   M. Checinski, S. Dohm, S. Ehlert, S. Ehrlich, I. Gerasimov, C. Hölzer
   A. Katbashev, J. Kohn, J. Koopman, C. Lavigne, S. Lehtola, F. März, M. Müller,
   F. Musil, H. Neugebauer, J. Pisarek, C. Plett, P. Pracht, F. Pultar,
   J. Seibert, P. Shushkov, S. Spicher, M. Stahn, M. Steiner, T. Strunk,
   J. Stückrath, T. Rose, and J. Unsleber
   
 * started run on 2024/12/16 at 16:36:00.977     
   ID    Z sym.   atoms
    1    6 C      1-3, 5-13, 17-23, 28-48, 50
    2    7 N      4, 27, 49
    3   15 P      14
    4   16 S      15, 16
    5    9 F      24-26
    6    1 H      51-90

           -------------------------------------------------
          |                Calculation Setup                |
           -------------------------------------------------

          program call               : xtb --gfn2 --opt extreme -P 8 --charge 1 molecule.xyz
          hostname                   : node05
          coordinate file            : molecule.xyz
          omp threads                :                     8


           -------------------------------------------------
          |                 G F N 2 - x T B                 |
           -------------------------------------------------

        Reference                      10.1021/acs.jctc.8b01176
      * Hamiltonian:
        H0-scaling (s, p, d)           1.850000    2.230000    2.230000
        zeta-weighting                 0.500000
      * Dispersion:
        s8                             2.700000
        a1                             0.520000
        a2                             5.000000
        s9                             5.000000
      * Repulsion:
        kExp                           1.500000    1.000000
        rExp                           1.000000
      * Coulomb:
        alpha                          2.000000
        third order                    shell-resolved
        anisotropic                    true
        a3                             3.000000
        a5                             4.000000
        cn-shift                       1.200000
        cn-exp                         4.000000
        max-rad                        5.000000


          ...................................................
          :                      SETUP                      :
          :.................................................:
          :  # basis functions                 258          :
          :  # atomic orbitals                 255          :
          :  # shells                          143          :
          :  # electrons                       256          :
          :  max. iterations                   250          :
          :  Hamiltonian                  GFN2-xTB          :
          :  restarted?                      false          :
          :  GBSA solvation                  false          :
          :  PC potential                    false          :
          :  electronic temp.          300.0000000     K    :
          :  accuracy                    1.0000000          :
          :  -> integral cutoff          0.2500000E+02      :
          :  -> integral neglect         0.1000000E-07      :
          :  -> SCF convergence          0.1000000E-05 Eh   :
          :  -> wf. convergence          0.1000000E-03 e    :
          :  Broyden damping             0.4000000          :
          :  net charge                          1          :
          :  unpaired electrons                  0          :
          ...................................................

 iter      E             dE          RMSdq      gap      omega  full diag
   1   -141.6257427 -0.141626E+03  0.443E+00    1.70       0.0  T
   2   -141.8230715 -0.197329E+00  0.261E+00    1.90       1.0  T
   3   -141.7978535  0.252180E-01  0.126E+00    1.65       1.0  T
   4   -141.8276110 -0.297575E-01  0.608E-01    1.35       1.0  T
   5   -141.8524252 -0.248141E-01  0.264E-01    1.47       1.0  T
   6   -141.8550920 -0.266683E-02  0.135E-01    1.44       1.0  T
   7   -141.8568147 -0.172273E-02  0.426E-02    1.46       1.0  T
   8   -141.8568633 -0.485678E-04  0.202E-02    1.46       1.0  T
   9   -141.8568688 -0.549702E-05  0.904E-03    1.46       1.2  T
  10   -141.8568695 -0.771285E-06  0.458E-03    1.46       2.3  T
  11   -141.8568700 -0.492358E-06  0.213E-03    1.46       5.0  T
  12   -141.8568702 -0.171742E-06  0.104E-03    1.46      10.1  T
  13   -141.8568702 -0.191153E-07  0.567E-04    1.46      18.6  T
  14   -141.8568702 -0.803612E-08  0.276E-04    1.46      38.1  T

   *** convergence criteria satisfied after 14 iterations ***

         #    Occupation            Energy/Eh            Energy/eV
      -------------------------------------------------------------
         1        2.0000           -0.9576325             -26.0585
       ...           ...                  ...                  ...
       122        2.0000           -0.4985576             -13.5664
       123        2.0000           -0.4938143             -13.4374
       124        2.0000           -0.4900626             -13.3353
       125        2.0000           -0.4892875             -13.3142
       126        2.0000           -0.4860204             -13.2253
       127        2.0000           -0.4713041             -12.8248
       128        2.0000           -0.4573110             -12.4441 (HOMO)
       129                         -0.4036814             -10.9847 (LUMO)
       130                         -0.3748734             -10.2008
       131                         -0.3700927             -10.0707
       132                         -0.3605792              -9.8119
       133                         -0.3544874              -9.6461
       ...                                ...                  ...
       255                          1.0386034              28.2618
      -------------------------------------------------------------
                  HL-Gap            0.0536296 Eh            1.4593 eV
             Fermi-level           -0.4304962 Eh          -11.7144 eV

 SCC (total)                   0 d,  0 h,  0 min,  1.675 sec
 SCC setup                      ...        0 min,  0.000 sec (  0.025%)
 Dispersion                     ...        0 min,  0.002 sec (  0.126%)
 classical contributions        ...        0 min,  0.000 sec (  0.008%)
 integral evaluation            ...        0 min,  0.009 sec (  0.526%)
 iterations                     ...        0 min,  1.543 sec ( 92.069%)
 molecular gradient             ...        0 min,  0.117 sec (  6.957%)
 printout                       ...        0 min,  0.005 sec (  0.286%)

         :::::::::::::::::::::::::::::::::::::::::::::::::::::
         ::                     SUMMARY                     ::
         :::::::::::::::::::::::::::::::::::::::::::::::::::::
         :: total energy            -139.875981846851 Eh    ::
         :: gradient norm              0.142320803044 Eh/a0 ::
         :: HOMO-LUMO gap              1.459335381906 eV    ::
         ::.................................................::
         :: SCC energy              -141.848309767572 Eh    ::
         :: -> isotropic ES            0.122953557514 Eh    ::
         :: -> anisotropic ES          0.004406290684 Eh    ::
         :: -> anisotropic XC          0.060465226464 Eh    ::
         :: -> dispersion             -0.146093291884 Eh    ::
         :: repulsion energy           1.972327920721 Eh    ::
         :: add. restraining           0.000000000000 Eh    ::
         :: total charge               1.000000000000 e     ::
         :::::::::::::::::::::::::::::::::::::::::::::::::::::

      ----------------------------------------------------------- 
     |                   =====================                   |
     |                        A N C O P T                        |
     |                   =====================                   |
     |               Approximate Normal Coordinate               |
     |                Rational Function Optimizer                |
      ----------------------------------------------------------- 
      ----------------------------------------------------------- 
     |                   =====================                   |
     |                        A N C O P T                        |
     |                   =====================                   |
     |               Approximate Normal Coordinate               |
     |                Rational Function Optimizer                |
      ----------------------------------------------------------- 

          ...................................................
          :                      SETUP                      :
          :.................................................:
          :   optimization level           extreme          :
          :   max. optcycles                  1800          :
          :   ANC micro-cycles                  20          :
          :   degrees of freedom               264          :
          :.................................................:
          :   RF solver                   davidson          :
          :   write xtbopt.log                true          :
          :   linear?                        false          :
          :   energy convergence         0.5000000E-07 Eh   :
          :   grad. convergence          0.5000000E-04 Eh/α :
          :   maxmium RF displ.          1.0000000          :
          :   Hlow (freq-cutoff)         0.1000000E-01      :
          :   Hmax (freq-cutoff)         5.0000000          :
          :   S6 in model hess.         20.0000000          :
          ...................................................

generating ANC from exact Hessian ...
Using Lindh-Hessian (1995)
 Shifting diagonal of input Hessian by    9.9267977352805910E-003
 Lowest  eigenvalues of input Hessian
    0.000000    0.000000    0.000000    0.000000    0.000000    0.000000
    0.010000    0.010081    0.010155    0.010183    0.010223    0.010366
    0.010472    0.010544    0.010760    0.010967    0.011194    0.011317
 Highest eigenvalues
    1.935230    1.938316    1.989908    2.027233    2.066582    2.076759


........................................................................
.............................. CYCLE    1 ..............................
........................................................................

 iter      E             dE          RMSdq      gap      omega  full diag
   1   -141.8568702 -0.141857E+03  0.164E-04    1.46       0.0  T
   2   -141.8568702 -0.251674E-09  0.125E-04    1.46      84.5  T
   3   -141.8568702 -0.251106E-09  0.964E-05    1.46     109.4  T
     SCC iter.                  ...        0 min,  0.365 sec
     gradient                   ...        0 min,  0.115 sec
 * total energy  :  -139.8759818 Eh     change       -0.1624954E-08 Eh
   gradient norm :     0.1423217 Eh/α   predicted     0.0000000E+00 (-100.00%)
   displ. norm   :     0.4475613 α      lambda       -0.3404215E-01
   maximum displ.:     0.1107175 α      in ANC's #26, #32, #60, ...

........................................................................
.............................. CYCLE    2 ..............................
........................................................................

 iter      E             dE          RMSdq      gap      omega  full diag
   1   -141.9450198 -0.141945E+03  0.249E-01    1.59       0.0  T
   2   -141.9452273 -0.207536E-03  0.133E-01    1.66       1.0  T
   3   -141.9451679  0.594697E-04  0.463E-02    1.70       1.0  T
   4   -141.9452511 -0.832454E-04  0.230E-02    1.70       1.0  T
   5   -141.9452682 -0.171185E-04  0.120E-02    1.70       1.0  T
   6   -141.9452775 -0.925074E-05  0.435E-03    1.70       2.4  T
   7   -141.9452779 -0.466185E-06  0.287E-03    1.70       3.7  T
   8   -141.9452782 -0.248633E-06  0.153E-03    1.70       6.9  T
   9   -141.9452782 -0.281061E-07  0.853E-04    1.70      12.4  T
  10   -141.9452782 -0.653236E-08  0.363E-04    1.70      29.0  T
     SCC iter.                  ...        0 min,  1.349 sec
     gradient                   ...        0 min,  0.146 sec
 * total energy  :  -139.9001511 Eh     change       -0.2416927E-01 Eh
   gradient norm :     0.0622608 Eh/α   predicted    -0.2046612E-01 ( -15.32%)
   displ. norm   :     0.4782421 α      lambda       -0.1326222E-01
   maximum displ.:     0.1633719 α      in ANC's #26, #20, #10, ...

........................................................................
.............................. CYCLE    3 ..............................
........................................................................

 iter      E             dE          RMSdq      gap      omega  full diag
   1   -142.0012445 -0.142001E+03  0.189E-01    1.85       0.0  T
   2   -142.0013545 -0.109941E-03  0.101E-01    1.89       1.0  T
   3   -142.0013172  0.373278E-04  0.380E-02    1.91       1.0  T
   4   -142.0013760 -0.587983E-04  0.146E-02    1.92       1.0  T
   5   -142.0013813 -0.535508E-05  0.716E-03    1.91       1.5  T
   6   -142.0013844 -0.309344E-05  0.273E-03    1.91       3.9  T
   7   -142.0013848 -0.440185E-06  0.133E-03    1.91       7.9  T
   8   -142.0013849 -0.578781E-07  0.632E-04    1.91      16.7  T
   9   -142.0013849 -0.885294E-08  0.350E-04    1.91      30.1  T
     SCC iter.                  ...        0 min,  1.169 sec
     gradient                   ...        0 min,  0.116 sec
 * total energy  :  -139.9086475 Eh     change       -0.8496425E-02 Eh
   gradient norm :     0.0161368 Eh/α   predicted    -0.8147757E-02 (  -4.10%)
   displ. norm   :     0.4709465 α      lambda       -0.3969116E-02
   maximum displ.:     0.1947778 α      in ANC's #26, #20, #10, ...

........................................................................
.............................. CYCLE    4 ..............................
........................................................................

 iter      E             dE          RMSdq      gap      omega  full diag
   1   -142.0115835 -0.142012E+03  0.116E-01    1.98       0.0  T
   2   -142.0116333 -0.498314E-04  0.635E-02    2.00       1.0  T
   3   -142.0116228  0.105204E-04  0.226E-02    2.01       1.0  T
   4   -142.0116354 -0.125664E-04  0.111E-02    2.02       1.0  T
   5   -142.0116422 -0.679193E-05  0.422E-03    2.01       2.5  T
   6   -142.0116427 -0.508501E-06  0.245E-03    2.01       4.3  T
   7   -142.0116429 -0.254987E-06  0.114E-03    2.01       9.3  T
   8   -142.0116430 -0.474897E-07  0.666E-04    2.01      15.8  T
   9   -142.0116430 -0.409005E-08  0.328E-04    2.01      32.1  T
     SCC iter.                  ...        0 min,  1.049 sec
     gradient                   ...        0 min,  0.116 sec
 * total energy  :  -139.9116046 Eh     change       -0.2957095E-02 Eh
   gradient norm :     0.0145029 Eh/α   predicted    -0.2424713E-02 ( -18.00%)
   displ. norm   :     0.5636181 α      lambda       -0.3031351E-02
   maximum displ.:     0.2510713 α      in ANC's #10, #20, #26, ...

........................................................................
.............................. CYCLE    5 ..............................
........................................................................

 iter      E             dE          RMSdq      gap      omega  full diag
   1   -142.0166072 -0.142017E+03  0.114E-01    2.04       0.0  T
   2   -142.0166382 -0.310039E-04  0.642E-02    2.04       1.0  T
   3   -142.0166272  0.110048E-04  0.228E-02    2.04       1.0  T
   4   -142.0166432 -0.160045E-04  0.773E-03    2.04       1.4  T
   5   -142.0166441 -0.872546E-06  0.463E-03    2.04       2.3  T
   6   -142.0166453 -0.119965E-05  0.181E-03    2.04       5.8  T
   7   -142.0166455 -0.144801E-06  0.955E-04    2.04      11.0  T
   8   -142.0166455 -0.377303E-07  0.418E-04    2.04      25.2  T
     SCC iter.                  ...        0 min,  0.925 sec
     gradient                   ...        0 min,  0.137 sec
 * total energy  :  -139.9137838 Eh     change       -0.2179198E-02 Eh
   gradient norm :     0.0123014 Eh/α   predicted    -0.1997157E-02 (  -8.35%)
   displ. norm   :     0.5450850 α      lambda       -0.1981090E-02
   maximum displ.:     0.2578493 α      in ANC's #10, #20, #26, ...

........................................................................
.............................. CYCLE    6 ..............................
........................................................................

 iter      E             dE          RMSdq      gap      omega  full diag
   1   -142.0181848 -0.142018E+03  0.104E-01    2.05       0.0  T
   2   -142.0182217 -0.368906E-04  0.529E-02    2.05       1.0  T
   3   -142.0182176  0.412941E-05  0.188E-02    2.06       1.0  T
   4   -142.0182206 -0.298300E-05  0.964E-03    2.05       1.1  T
   5   -142.0182260 -0.549257E-05  0.388E-03    2.05       2.7  T
   6   -142.0182266 -0.518447E-06  0.226E-03    2.05       4.7  T
   7   -142.0182269 -0.296124E-06  0.112E-03    2.05       9.5  T
   8   -142.0182269 -0.126637E-07  0.667E-04    2.05      15.8  T
   9   -142.0182269 -0.562341E-08  0.322E-04    2.05      32.7  T
     SCC iter.                  ...        0 min,  1.019 sec
     gradient                   ...        0 min,  0.148 sec
 * total energy  :  -139.9151648 Eh     change       -0.1381010E-02 Eh
   gradient norm :     0.0084819 Eh/α   predicted    -0.1284862E-02 (  -6.96%)
   displ. norm   :     0.4925274 α      lambda       -0.1284567E-02
   maximum displ.:     0.2227322 α      in ANC's #10, #20, #5, ...

........................................................................
.............................. CYCLE    7 ..............................
........................................................................

 iter      E             dE          RMSdq      gap      omega  full diag
   1   -142.0202554 -0.142020E+03  0.919E-02    2.05       0.0  T
   2   -142.0202645 -0.912340E-05  0.484E-02    2.05       1.0  T
   3   -142.0202575  0.698790E-05  0.133E-02    2.05       1.0  T
   4   -142.0202637 -0.624200E-05  0.730E-03    2.05       1.4  T
   5   -142.0202668 -0.305192E-05  0.270E-03    2.05       3.9  T
   6   -142.0202674 -0.605175E-06  0.858E-04    2.05      12.3  T
   7   -142.0202674 -0.208332E-07  0.448E-04    2.05      23.5  T
     SCC iter.                  ...        0 min,  1.062 sec
     gradient                   ...        0 min,  0.147 sec
 * total energy  :  -139.9160840 Eh     change       -0.9191375E-03 Eh
   gradient norm :     0.0075976 Eh/α   predicted    -0.7980946E-03 ( -13.17%)
   displ. norm   :     0.4491787 α      lambda       -0.8329438E-03
   maximum displ.:     0.1837351 α      in ANC's #5, #10, #15, ...

........................................................................
.............................. CYCLE    8 ..............................
........................................................................

 iter      E             dE          RMSdq      gap      omega  full diag
   1   -142.0227886 -0.142023E+03  0.746E-02    2.06       0.0  T
   2   -142.0227949 -0.628065E-05  0.422E-02    2.05       1.0  T
   3   -142.0227891  0.577229E-05  0.117E-02    2.06       1.0  T
   4   -142.0227954 -0.631350E-05  0.447E-03    2.05       2.4  T
   5   -142.0227965 -0.106395E-05  0.237E-03    2.05       4.5  T
   6   -142.0227969 -0.407563E-06  0.919E-04    2.05      11.5  T
   7   -142.0227969 -0.419338E-07  0.445E-04    2.05      23.7  T
     SCC iter.                  ...        0 min,  0.930 sec
     gradient                   ...        0 min,  0.118 sec
 * total energy  :  -139.9167036 Eh     change       -0.6195791E-03 Eh
   gradient norm :     0.0068531 Eh/α   predicted    -0.5005021E-03 ( -19.22%)
   displ. norm   :     0.4422538 α      lambda       -0.6562676E-03
   maximum displ.:     0.2140335 α      in ANC's #5, #15, #10, ...

........................................................................
.............................. CYCLE    9 ..............................
........................................................................

 iter      E             dE          RMSdq      gap      omega  full diag
   1   -142.0231707 -0.142023E+03  0.811E-02    2.06       0.0  T
   2   -142.0231767 -0.603789E-05  0.451E-02    2.06       1.0  T
   3   -142.0231732  0.349896E-05  0.114E-02    2.07       1.0  T
   4   -142.0231775 -0.423969E-05  0.499E-03    2.07       2.1  T
   5   -142.0231786 -0.106841E-05  0.153E-03    2.07       6.9  T
   6   -142.0231787 -0.121376E-06  0.673E-04    2.07      15.7  T
   7   -142.0231787 -0.265410E-08  0.422E-04    2.07      25.0  T
     SCC iter.                  ...        0 min,  0.831 sec
     gradient                   ...        0 min,  0.118 sec
 * total energy  :  -139.9172074 Eh     change       -0.5038650E-03 Eh
   gradient norm :     0.0060807 Eh/α   predicted    -0.3923330E-03 ( -22.14%)
   displ. norm   :     0.4581666 α      lambda       -0.6136256E-03
   maximum displ.:     0.2500611 α      in ANC's #5, #15, #6, ...

........................................................................
.............................. CYCLE   10 ..............................
........................................................................

 iter      E             dE          RMSdq      gap      omega  full diag
   1   -142.0239350 -0.142024E+03  0.851E-02    2.08       0.0  T
   2   -142.0239391 -0.410868E-05  0.498E-02    2.08       1.0  T
   3   -142.0239359  0.317702E-05  0.799E-03    2.08       1.3  T
   4   -142.0239400 -0.414460E-05  0.311E-03    2.08       3.4  T
   5   -142.0239405 -0.462724E-06  0.151E-03    2.08       7.0  T
   6   -142.0239405 -0.527264E-07  0.799E-04    2.08      13.2  T
   7   -142.0239406 -0.188523E-07  0.491E-04    2.08      21.5  T
     SCC iter.                  ...        0 min,  0.959 sec
     gradient                   ...        0 min,  0.124 sec
 * total energy  :  -139.9176934 Eh     change       -0.4860027E-03 Eh
   gradient norm :     0.0063160 Eh/α   predicted    -0.3712185E-03 ( -23.62%)
   displ. norm   :     0.4796345 α      lambda       -0.6011169E-03
   maximum displ.:     0.2787691 α      in ANC's #5, #6, #15, ...

........................................................................
.............................. CYCLE   11 ..............................
........................................................................

 iter      E             dE          RMSdq      gap      omega  full diag
   1   -142.0231906 -0.142023E+03  0.897E-02    2.08       0.0  T
   2   -142.0231945 -0.389168E-05  0.524E-02    2.09       1.0  T
   3   -142.0231860  0.851623E-05  0.102E-02    2.09       1.0  T
   4   -142.0231958 -0.986774E-05  0.342E-03    2.09       3.1  T
   5   -142.0231963 -0.499057E-06  0.173E-03    2.09       6.1  T
   6   -142.0231965 -0.186805E-06  0.817E-04    2.09      12.9  T
   7   -142.0231966 -0.219010E-07  0.469E-04    2.09      22.5  T
     SCC iter.                  ...        0 min,  0.935 sec
     gradient                   ...        0 min,  0.119 sec
 * total energy  :  -139.9181872 Eh     change       -0.4937506E-03 Eh
   gradient norm :     0.0072581 Eh/α   predicted    -0.3697054E-03 ( -25.12%)
   displ. norm   :     0.5053563 α      lambda       -0.6243796E-03
   maximum displ.:     0.3118667 α      in ANC's #5, #6, #15, ...

........................................................................
.............................. CYCLE   12 ..............................
........................................................................

 iter      E             dE          RMSdq      gap      omega  full diag
   1   -142.0234071 -0.142023E+03  0.936E-02    2.09       0.0  T
   2   -142.0234115 -0.443300E-05  0.547E-02    2.09       1.0  T
   3   -142.0234035  0.799781E-05  0.112E-02    2.09       1.0  T
   4   -142.0234126 -0.905215E-05  0.441E-03    2.09       2.4  T
   5   -142.0234135 -0.899966E-06  0.204E-03    2.09       5.2  T
   6   -142.0234138 -0.307562E-06  0.780E-04    2.09      13.5  T
   7   -142.0234138 -0.240981E-07  0.427E-04    2.09      24.7  T
     SCC iter.                  ...        0 min,  1.110 sec
     gradient                   ...        0 min,  0.120 sec
 * total energy  :  -139.9187031 Eh     change       -0.5159248E-03 Eh
   gradient norm :     0.0075549 Eh/α   predicted    -0.3919187E-03 ( -24.04%)
   displ. norm   :     0.5161286 α      lambda       -0.6012600E-03
   maximum displ.:     0.3340710 α      in ANC's #5, #6, #41, ...

........................................................................
.............................. CYCLE   13 ..............................
........................................................................

 iter      E             dE          RMSdq      gap      omega  full diag
   1   -142.0238327 -0.142024E+03  0.900E-02    2.10       0.0  T
   2   -142.0238369 -0.412411E-05  0.527E-02    2.10       1.0  T
   3   -142.0238288  0.805698E-05  0.106E-02    2.09       1.0  T
   4   -142.0238382 -0.934027E-05  0.389E-03    2.10       2.7  T
   5   -142.0238389 -0.705592E-06  0.177E-03    2.09       6.0  T
   6   -142.0238391 -0.207784E-06  0.714E-04    2.10      14.8  T
   7   -142.0238391 -0.225286E-07  0.352E-04    2.10      30.0  T
     SCC iter.                  ...        0 min,  1.025 sec
     gradient                   ...        0 min,  0.171 sec
 * total energy  :  -139.9191921 Eh     change       -0.4889694E-03 Eh
   gradient norm :     0.0070883 Eh/α   predicted    -0.3807147E-03 ( -22.14%)
   displ. norm   :     0.5025439 α      lambda       -0.5275208E-03
   maximum displ.:     0.3385530 α      in ANC's #5, #6, #41, ...

........................................................................
.............................. CYCLE   14 ..............................
........................................................................

 iter      E             dE          RMSdq      gap      omega  full diag
   1   -142.0251695 -0.142025E+03  0.851E-02    2.10       0.0  T
   2   -142.0251731 -0.359588E-05  0.496E-02    2.10       1.0  T
   3   -142.0251680  0.504425E-05  0.907E-03    2.10       1.2  T
   4   -142.0251739 -0.589747E-05  0.388E-03    2.10       2.7  T
   5   -142.0251747 -0.746590E-06  0.159E-03    2.10       6.6  T
   6   -142.0251748 -0.179957E-06  0.625E-04    2.10      16.9  T
   7   -142.0251748 -0.193269E-07  0.313E-04    2.10      33.7  T
     SCC iter.                  ...        0 min,  0.689 sec
     gradient                   ...        0 min,  0.117 sec
 * total energy  :  -139.9196179 Eh     change       -0.4257781E-03 Eh
   gradient norm :     0.0064257 Eh/α   predicted    -0.3303735E-03 ( -22.41%)
   displ. norm   :     0.4972266 α      lambda       -0.4667817E-03
   maximum displ.:     0.3419929 α      in ANC's #5, #6, #3, ...

........................................................................
.............................. CYCLE   15 ..............................
........................................................................

 iter      E             dE          RMSdq      gap      omega  full diag
   1   -142.0263424 -0.142026E+03  0.802E-02    2.11       0.0  T
   2   -142.0263456 -0.317509E-05  0.468E-02    2.11       1.0  T
   3   -142.0263412  0.434553E-05  0.814E-03    2.10       1.3  T
   4   -142.0263465 -0.527453E-05  0.332E-03    2.11       3.2  T
   5   -142.0263470 -0.513359E-06  0.139E-03    2.11       7.6  T
   6   -142.0263471 -0.132554E-06  0.576E-04    2.11      18.3  T
   7   -142.0263471 -0.170395E-07  0.283E-04    2.11      37.2  T
     SCC iter.                  ...        0 min,  0.780 sec
     gradient                   ...        0 min,  0.166 sec
 * total energy  :  -139.9199990 Eh     change       -0.3811678E-03 Eh
   gradient norm :     0.0062843 Eh/α   predicted    -0.2910947E-03 ( -23.63%)
   displ. norm   :     0.5146230 α      lambda       -0.4616624E-03
   maximum displ.:     0.3517214 α      in ANC's #5, #6, #3, ...

........................................................................
.............................. CYCLE   16 ..............................
........................................................................

 iter      E             dE          RMSdq      gap      omega  full diag
   1   -142.0283893 -0.142028E+03  0.819E-02    2.12       0.0  T
   2   -142.0283929 -0.357417E-05  0.478E-02    2.12       1.0  T
   3   -142.0283870  0.589344E-05  0.906E-03    2.11       1.2  T
   4   -142.0283940 -0.699584E-05  0.338E-03    2.12       3.1  T
   5   -142.0283945 -0.508348E-06  0.146E-03    2.12       7.2  T
   6   -142.0283946 -0.139782E-06  0.632E-04    2.12      16.7  T
   7   -142.0283947 -0.237770E-07  0.292E-04    2.12      36.1  T
     SCC iter.                  ...        0 min,  0.672 sec
     gradient                   ...        0 min,  0.115 sec
 * total energy  :  -139.9203690 Eh     change       -0.3699859E-03 Eh
   gradient norm :     0.0059668 Eh/α   predicted    -0.2919679E-03 ( -21.09%)
   displ. norm   :     0.5749666 α      lambda       -0.4327728E-03
   maximum displ.:     0.3803195 α      in ANC's #5, #9, #6, ...

........................................................................
.............................. CYCLE   17 ..............................
........................................................................

 iter      E             dE          RMSdq      gap      omega  full diag
   1   -142.0255351 -0.142026E+03  0.894E-02    2.13       0.0  T
   2   -142.0255408 -0.572342E-05  0.520E-02    2.13       1.0  T
   3   -142.0255322  0.862254E-05  0.111E-02    2.13       1.0  T
   4   -142.0255424 -0.102190E-04  0.413E-03    2.13       2.6  T
   5   -142.0255433 -0.850430E-06  0.184E-03    2.13       5.7  T
   6   -142.0255435 -0.224869E-06  0.782E-04    2.13      13.5  T
   7   -142.0255435 -0.300638E-07  0.394E-04    2.13      26.7  T
     SCC iter.                  ...        0 min,  0.803 sec
     gradient                   ...        0 min,  0.115 sec
 * total energy  :  -139.9206727 Eh     change       -0.3036695E-03 Eh
   gradient norm :     0.0084966 Eh/α   predicted    -0.2879258E-03 (  -5.18%)
   displ. norm   :     0.4993549 α      lambda       -0.5758083E-03
   maximum displ.:     0.2571827 α      in ANC's #5, #9, #10, ...

........................................................................
.............................. CYCLE   18 ..............................
........................................................................

 iter      E             dE          RMSdq      gap      omega  full diag
   1   -142.0324433 -0.142032E+03  0.922E-02    2.14       0.0  T
   2   -142.0324564 -0.131261E-04  0.540E-02    2.15       1.0  T
   3   -142.0324465  0.993845E-05  0.121E-02    2.14       1.0  T
   4   -142.0324575 -0.109952E-04  0.439E-03    2.15       2.4  T
   5   -142.0324590 -0.149242E-05  0.176E-03    2.15       6.0  T
   6   -142.0324591 -0.105326E-06  0.911E-04    2.15      11.6  T
   7   -142.0324592 -0.651436E-07  0.334E-04    2.15      31.6  T
     SCC iter.                  ...        0 min,  0.866 sec
     gradient                   ...        0 min,  0.160 sec
 * total energy  :  -139.9208906 Eh     change       -0.2179544E-03 Eh
   gradient norm :     0.0101904 Eh/α   predicted    -0.3596957E-03 (  65.03%)
   displ. norm   :     0.3449161 α      lambda       -0.3413931E-03
   maximum displ.:     0.2088554 α      in ANC's #5, #9, #8, ...

........................................................................
.............................. CYCLE   19 ..............................
........................................................................

 iter      E             dE          RMSdq      gap      omega  full diag
   1   -142.0278169 -0.142028E+03  0.550E-02    2.15       0.0  T
   2   -142.0278228 -0.593035E-05  0.322E-02    2.15       1.0  T
   3   -142.0278174  0.542093E-05  0.913E-03    2.15       1.2  T
   4   -142.0278236 -0.620684E-05  0.337E-03    2.15       3.1  T
   5   -142.0278245 -0.888276E-06  0.131E-03    2.15       8.0  T
   6   -142.0278245 -0.540347E-07  0.677E-04    2.15      15.6  T
   7   -142.0278246 -0.328291E-07  0.276E-04    2.15      38.2  T
     SCC iter.                  ...        0 min,  0.784 sec
     gradient                   ...        0 min,  0.117 sec
 * total energy  :  -139.9211182 Eh     change       -0.2275463E-03 Eh
   gradient norm :     0.0058924 Eh/α   predicted    -0.1910094E-03 ( -16.06%)
   displ. norm   :     0.2322885 α      lambda       -0.1889799E-03
   maximum displ.:     0.1221540 α      in ANC's #9, #5, #2, ...

........................................................................
.............................. CYCLE   20 ..............................
........................................................................

 iter      E             dE          RMSdq      gap      omega  full diag
   1   -142.0264490 -0.142026E+03  0.392E-02    2.15       0.0  T
   2   -142.0264503 -0.133064E-05  0.228E-02    2.15       1.0  T
   3   -142.0264474  0.290312E-05  0.608E-03    2.15       1.7  T
   4   -142.0264507 -0.329468E-05  0.205E-03    2.15       5.1  T
   5   -142.0264509 -0.212631E-06  0.990E-04    2.15      10.7  T
   6   -142.0264510 -0.525085E-07  0.411E-04    2.15      25.7  T
     SCC iter.                  ...        0 min,  0.716 sec
     gradient                   ...        0 min,  0.117 sec
 * total energy  :  -139.9212611 Eh     change       -0.1429462E-03 Eh
   gradient norm :     0.0058939 Eh/α   predicted    -0.9959126E-04 ( -30.33%)
   displ. norm   :     0.3135925 α      lambda       -0.2448546E-03
   maximum displ.:     0.1778135 α      in ANC's #9, #2, #1, ...
 * RMSD in coord.:     0.6905720 α      energy gain  -0.4527928E-01 Eh

generating ANC from exact Hessian ...
Using Lindh-Hessian (1995)
 Shifting diagonal of input Hessian by    9.9107927030654547E-003
 Lowest  eigenvalues of input Hessian
    0.000000    0.000000    0.000000    0.000000    0.000000    0.000000
    0.010000    0.010108    0.010210    0.010307    0.010410    0.010525
    0.010595    0.010648    0.010797    0.011191    0.011255    0.011500
 Highest eigenvalues
    2.007726    2.019250    2.026506    2.071638    2.113538    2.126454


........................................................................
.............................. CYCLE   21 ..............................
........................................................................

 iter      E             dE          RMSdq      gap      omega  full diag
   1   -142.0273125 -0.142027E+03  0.583E-02    2.14       0.0  T
   2   -142.0273143 -0.186618E-05  0.336E-02    2.15       1.0  T
   3   -142.0273100  0.432123E-05  0.746E-03    2.15       1.4  T
   4   -142.0273147 -0.466909E-05  0.293E-03    2.15       3.6  T
   5   -142.0273151 -0.451203E-06  0.124E-03    2.15       8.5  T
   6   -142.0273152 -0.109393E-06  0.441E-04    2.15      23.9  T
   7   -142.0273153 -0.104278E-07  0.220E-04    2.15      48.0  T
     SCC iter.                  ...        0 min,  1.053 sec
     gradient                   ...        0 min,  0.169 sec
 * total energy  :  -139.9214336 Eh     change       -0.1724263E-03 Eh
   gradient norm :     0.0057529 Eh/α   predicted     0.0000000E+00 (-100.00%)
   displ. norm   :     0.0640282 α      lambda       -0.1009473E-03
   maximum displ.:     0.0361273 α      in ANC's #2, #32, #7, ...

........................................................................
.............................. CYCLE   22 ..............................
........................................................................

 iter      E             dE          RMSdq      gap      omega  full diag
   1   -142.0286198 -0.142029E+03  0.132E-02    2.14       0.0  T
   2   -142.0286204 -0.582496E-06  0.761E-03    2.14       1.4  T
   3   -142.0286203  0.123151E-06  0.237E-03    2.14       4.4  T
   4   -142.0286205 -0.214044E-06  0.782E-04    2.14      13.5  T
   5   -142.0286205 -0.313999E-07  0.359E-04    2.14      29.4  T
     SCC iter.                  ...        0 min,  0.688 sec
     gradient                   ...        0 min,  0.120 sec
 * total energy  :  -139.9215163 Eh     change       -0.8270766E-04 Eh
   gradient norm :     0.0027751 Eh/α   predicted    -0.5091269E-04 ( -38.44%)
   displ. norm   :     0.1865317 α      lambda       -0.1783496E-03
   maximum displ.:     0.1040654 α      in ANC's #2, #32, #7, ...

........................................................................
.............................. CYCLE   23 ..............................
........................................................................

 iter      E             dE          RMSdq      gap      omega  full diag
   1   -142.0303638 -0.142030E+03  0.321E-02    2.15       0.0  T
   2   -142.0303656 -0.179260E-05  0.187E-02    2.14       1.0  T
   3   -142.0303651  0.514868E-06  0.448E-03    2.14       2.4  T
   4   -142.0303661 -0.102711E-05  0.144E-03    2.14       7.3  T
   5   -142.0303662 -0.781275E-07  0.687E-04    2.14      15.3  T
   6   -142.0303662 -0.156279E-07  0.274E-04    2.14      38.5  T
     SCC iter.                  ...        0 min,  0.651 sec
     gradient                   ...        0 min,  0.126 sec
 * total energy  :  -139.9216484 Eh     change       -0.1321874E-03 Eh
   gradient norm :     0.0032518 Eh/α   predicted    -0.9228103E-04 ( -30.19%)
   displ. norm   :     0.2779435 α      lambda       -0.1778162E-03
   maximum displ.:     0.1532044 α      in ANC's #2, #32, #7, ...

........................................................................
.............................. CYCLE   24 ..............................
........................................................................

 iter      E             dE          RMSdq      gap      omega  full diag
   1   -142.0308264 -0.142031E+03  0.428E-02    2.14       0.0  T
   2   -142.0308284 -0.203598E-05  0.252E-02    2.14       1.0  T
   3   -142.0308273  0.107440E-05  0.543E-03    2.14       1.9  T
   4   -142.0308295 -0.220417E-05  0.165E-03    2.14       6.4  T
   5   -142.0308296 -0.578655E-07  0.766E-04    2.14      13.8  T
   6   -142.0308296 -0.125596E-07  0.405E-04    2.14      26.0  T
     SCC iter.                  ...        0 min,  0.801 sec
     gradient                   ...        0 min,  0.179 sec
 * total energy  :  -139.9218034 Eh     change       -0.1549046E-03 Eh
   gradient norm :     0.0053816 Eh/α   predicted    -0.9577655E-04 ( -38.17%)
   displ. norm   :     0.5327416 α      lambda       -0.3245110E-03
   maximum displ.:     0.2881043 α      in ANC's #2, #32, #7, ...

........................................................................
.............................. CYCLE   25 ..............................
........................................................................

 iter      E             dE          RMSdq      gap      omega  full diag
   1   -142.0288892 -0.142029E+03  0.786E-02    2.13       0.0  T
   2   -142.0288996 -0.104545E-04  0.468E-02    2.13       1.0  T
   3   -142.0288974  0.224087E-05  0.979E-03    2.13       1.1  T
   4   -142.0289037 -0.632073E-05  0.346E-03    2.13       3.0  T
   5   -142.0289042 -0.490179E-06  0.172E-03    2.13       6.1  T
   6   -142.0289043 -0.718723E-07  0.840E-04    2.13      12.5  T
   7   -142.0289043 -0.478086E-07  0.369E-04    2.13      28.6  T
     SCC iter.                  ...        0 min,  0.628 sec
     gradient                   ...        0 min,  0.117 sec
 * total energy  :  -139.9220049 Eh     change       -0.2015793E-03 Eh
   gradient norm :     0.0098958 Eh/α   predicted    -0.2083112E-03 (   3.34%)
   displ. norm   :     0.1233410 α      lambda       -0.1502292E-03
   maximum displ.:     0.0776401 α      in ANC's #2, #7, #1, ...

........................................................................
.............................. CYCLE   26 ..............................
........................................................................

 iter      E             dE          RMSdq      gap      omega  full diag
   1   -142.0292155 -0.142029E+03  0.218E-02    2.13       0.0  T
   2   -142.0292161 -0.611040E-06  0.127E-02    2.13       1.0  T
   3   -142.0292156  0.522660E-06  0.310E-03    2.13       3.4  T
   4   -142.0292163 -0.658723E-06  0.100E-03    2.13      10.5  T
   5   -142.0292163 -0.552151E-07  0.427E-04    2.13      24.7  T
   6   -142.0292163 -0.453034E-08  0.178E-04    2.13      59.3  T
     SCC iter.                  ...        0 min,  0.733 sec
     gradient                   ...        0 min,  0.116 sec
 * total energy  :  -139.9221315 Eh     change       -0.1265791E-03 Eh
   gradient norm :     0.0070207 Eh/α   predicted    -0.7625914E-04 ( -39.75%)
   displ. norm   :     0.3467640 α      lambda       -0.2891651E-03
   maximum displ.:     0.2201429 α      in ANC's #2, #32, #1, ...

........................................................................
.............................. CYCLE   27 ..............................
........................................................................

 iter      E             dE          RMSdq      gap      omega  full diag
   1   -142.0296443 -0.142030E+03  0.531E-02    2.13       0.0  T
   2   -142.0296476 -0.329300E-05  0.310E-02    2.14       1.0  T
   3   -142.0296450  0.256850E-05  0.687E-03    2.14       1.5  T
   4   -142.0296484 -0.337835E-05  0.253E-03    2.14       4.2  T
   5   -142.0296488 -0.400237E-06  0.123E-03    2.14       8.5  T
   6   -142.0296488 -0.466163E-07  0.674E-04    2.14      15.6  T
   7   -142.0296488 -0.208416E-07  0.328E-04    2.14      32.1  T
     SCC iter.                  ...        0 min,  0.839 sec
     gradient                   ...        0 min,  0.116 sec
 * total energy  :  -139.9223296 Eh     change       -0.1981191E-03 Eh
   gradient norm :     0.0039038 Eh/α   predicted    -0.1619684E-03 ( -18.25%)
   displ. norm   :     0.3421610 α      lambda       -0.1477358E-03
   maximum displ.:     0.2241173 α      in ANC's #2, #32, #1, ...

........................................................................
.............................. CYCLE   28 ..............................
........................................................................

 iter      E             dE          RMSdq      gap      omega  full diag
   1   -142.0291387 -0.142029E+03  0.479E-02    2.14       0.0  T
   2   -142.0291415 -0.285244E-05  0.276E-02    2.14       1.0  T
   3   -142.0291405  0.102870E-05  0.628E-03    2.14       1.7  T
   4   -142.0291423 -0.179232E-05  0.264E-03    2.14       4.0  T
   5   -142.0291427 -0.388136E-06  0.118E-03    2.14       8.9  T
   6   -142.0291427 -0.733378E-07  0.564E-04    2.14      18.7  T
   7   -142.0291428 -0.111614E-07  0.285E-04    2.14      37.0  T
     SCC iter.                  ...        0 min,  0.833 sec
     gradient                   ...        0 min,  0.176 sec
 * total energy  :  -139.9224249 Eh     change       -0.9530752E-04 Eh
   gradient norm :     0.0063564 Eh/α   predicted    -0.8251745E-04 ( -13.42%)
   displ. norm   :     0.2364117 α      lambda       -0.1660846E-03
   maximum displ.:     0.1639298 α      in ANC's #2, #1, #4, ...

........................................................................
.............................. CYCLE   29 ..............................
........................................................................

 iter      E             dE          RMSdq      gap      omega  full diag
   1   -142.0311953 -0.142031E+03  0.385E-02    2.14       0.0  T
   2   -142.0311990 -0.366951E-05  0.226E-02    2.15       1.0  T
   3   -142.0311975  0.144051E-05  0.533E-03    2.15       2.0  T
   4   -142.0311992 -0.167116E-05  0.194E-03    2.15       5.4  T
   5   -142.0311996 -0.347134E-06  0.859E-04    2.15      12.3  T
   6   -142.0311996 -0.311811E-07  0.400E-04    2.15      26.4  T
     SCC iter.                  ...        0 min,  1.005 sec
     gradient                   ...        0 min,  0.121 sec
 * total energy  :  -139.9225022 Eh     change       -0.7729518E-04 Eh
   gradient norm :     0.0061783 Eh/α   predicted    -0.8768486E-04 (  13.44%)
   displ. norm   :     0.2841162 α      lambda       -0.1416909E-03
   maximum displ.:     0.1960716 α      in ANC's #2, #32, #1, ...

........................................................................
.............................. CYCLE   30 ..............................
........................................................................

 iter      E             dE          RMSdq      gap      omega  full diag
   1   -142.0301650 -0.142030E+03  0.372E-02    2.15       0.0  T
   2   -142.0301682 -0.317752E-05  0.218E-02    2.16       1.0  T
   3   -142.0301671  0.110669E-05  0.588E-03    2.16       1.8  T
   4   -142.0301686 -0.152380E-05  0.275E-03    2.16       3.8  T
   5   -142.0301691 -0.539027E-06  0.129E-03    2.16       8.2  T
   6   -142.0301692 -0.921922E-07  0.574E-04    2.16      18.4  T
   7   -142.0301692 -0.115807E-07  0.287E-04    2.16      36.7  T
     SCC iter.                  ...        0 min,  0.837 sec
     gradient                   ...        0 min,  0.116 sec
 * total energy  :  -139.9225895 Eh     change       -0.8727479E-04 Eh
   gradient norm :     0.0051621 Eh/α   predicted    -0.7656466E-04 ( -12.27%)
   displ. norm   :     0.1677511 α      lambda       -0.1133110E-03
   maximum displ.:     0.1213585 α      in ANC's #2, #1, #32, ...

........................................................................
.............................. CYCLE   31 ..............................
........................................................................

 iter      E             dE          RMSdq      gap      omega  full diag
   1   -142.0305625 -0.142031E+03  0.298E-02    2.16       0.0  T
   2   -142.0305639 -0.145088E-05  0.159E-02    2.16       1.0  T
   3   -142.0305639 -0.241196E-07  0.409E-03    2.16       2.6  T
   4   -142.0305640 -0.342538E-07  0.215E-03    2.16       4.9  T
   5   -142.0305642 -0.203774E-06  0.848E-04    2.16      12.4  T
   6   -142.0305642 -0.372376E-07  0.442E-04    2.16      23.8  T
     SCC iter.                  ...        0 min,  0.615 sec
     gradient                   ...        0 min,  0.123 sec
 * total energy  :  -139.9226677 Eh     change       -0.7817255E-04 Eh
   gradient norm :     0.0038249 Eh/α   predicted    -0.5825435E-04 ( -25.48%)
   displ. norm   :     0.1867933 α      lambda       -0.9275248E-04
   maximum displ.:     0.1339047 α      in ANC's #2, #1, #13, ...

........................................................................
.............................. CYCLE   32 ..............................
........................................................................

 iter      E             dE          RMSdq      gap      omega  full diag
   1   -142.0311737 -0.142031E+03  0.287E-02    2.15       0.0  T
   2   -142.0311750 -0.133263E-05  0.157E-02    2.15       1.0  T
   3   -142.0311747  0.377905E-06  0.397E-03    2.15       2.7  T
   4   -142.0311751 -0.456500E-06  0.204E-03    2.15       5.2  T
   5   -142.0311753 -0.189526E-06  0.838E-04    2.15      12.6  T
   6   -142.0311753 -0.404834E-07  0.385E-04    2.15      27.4  T
     SCC iter.                  ...        0 min,  0.731 sec
     gradient                   ...        0 min,  0.118 sec
 * total energy  :  -139.9227305 Eh     change       -0.6283054E-04 Eh
   gradient norm :     0.0026844 Eh/α   predicted    -0.4799722E-04 ( -23.61%)
   displ. norm   :     0.2113799 α      lambda       -0.5633985E-04
   maximum displ.:     0.1593397 α      in ANC's #2, #1, #32, ...

........................................................................
.............................. CYCLE   33 ..............................
........................................................................

 iter      E             dE          RMSdq      gap      omega  full diag
   1   -142.0308514 -0.142031E+03  0.238E-02    2.15       0.0  T
   2   -142.0308518 -0.485705E-06  0.138E-02    2.15       1.0  T
   3   -142.0308511  0.702816E-06  0.313E-03    2.15       3.4  T
   4   -142.0308520 -0.872367E-06  0.124E-03    2.15       8.5  T
   5   -142.0308521 -0.659170E-07  0.568E-04    2.15      18.6  T
   6   -142.0308521 -0.199607E-07  0.234E-04    2.15      45.0  T
     SCC iter.                  ...        0 min,  0.819 sec
     gradient                   ...        0 min,  0.184 sec
 * total energy  :  -139.9227765 Eh     change       -0.4603605E-04 Eh
   gradient norm :     0.0025819 Eh/α   predicted    -0.2942957E-04 ( -36.07%)
   displ. norm   :     0.2174404 α      lambda       -0.6018825E-04
   maximum displ.:     0.1629227 α      in ANC's #2, #1, #5, ...

........................................................................
.............................. CYCLE   34 ..............................
........................................................................

 iter      E             dE          RMSdq      gap      omega  full diag
   1   -142.0309151 -0.142031E+03  0.235E-02    2.15       0.0  T
   2   -142.0309156 -0.487303E-06  0.137E-02    2.15       1.0  T
   3   -142.0309149  0.759807E-06  0.338E-03    2.15       3.1  T
   4   -142.0309158 -0.947737E-06  0.121E-03    2.15       8.7  T
   5   -142.0309159 -0.467679E-07  0.578E-04    2.15      18.2  T
   6   -142.0309159 -0.192752E-07  0.226E-04    2.15      46.7  T
     SCC iter.                  ...        0 min,  0.557 sec
     gradient                   ...        0 min,  0.119 sec
 * total energy  :  -139.9228258 Eh     change       -0.4924188E-04 Eh
   gradient norm :     0.0020086 Eh/α   predicted    -0.3152161E-04 ( -35.99%)
   displ. norm   :     0.2378003 α      lambda       -0.5608677E-04
   maximum displ.:     0.1767941 α      in ANC's #2, #1, #5, ...

........................................................................
.............................. CYCLE   35 ..............................
........................................................................

 iter      E             dE          RMSdq      gap      omega  full diag
   1   -142.0308099 -0.142031E+03  0.258E-02    2.15       0.0  T
   2   -142.0308103 -0.450323E-06  0.151E-02    2.15       1.0  T
   3   -142.0308094  0.919493E-06  0.336E-03    2.15       3.1  T
   4   -142.0308106 -0.114807E-05  0.107E-03    2.15       9.9  T
   5   -142.0308106 -0.318223E-07  0.558E-04    2.15      18.9  T
   6   -142.0308106 -0.154065E-07  0.227E-04    2.15      46.5  T
     SCC iter.                  ...        0 min,  0.525 sec
     gradient                   ...        0 min,  0.117 sec
 * total energy  :  -139.9228709 Eh     change       -0.4507478E-04 Eh
   gradient norm :     0.0019442 Eh/α   predicted    -0.2963288E-04 ( -34.26%)
   displ. norm   :     0.3246117 α      lambda       -0.4551117E-04
   maximum displ.:     0.2336420 α      in ANC's #2, #1, #5, ...

........................................................................
.............................. CYCLE   36 ..............................
........................................................................

 iter      E             dE          RMSdq      gap      omega  full diag
   1   -142.0309324 -0.142031E+03  0.369E-02    2.15       0.0  T
   2   -142.0309332 -0.771572E-06  0.215E-02    2.15       1.0  T
   3   -142.0309319  0.131672E-05  0.410E-03    2.15       2.6  T
   4   -142.0309335 -0.163516E-05  0.150E-03    2.15       7.0  T
   5   -142.0309336 -0.707667E-07  0.737E-04    2.15      14.3  T
   6   -142.0309336 -0.296085E-07  0.295E-04    2.15      35.8  T
     SCC iter.                  ...        0 min,  0.821 sec
     gradient                   ...        0 min,  0.115 sec
 * total energy  :  -139.9229213 Eh     change       -0.5044165E-04 Eh
   gradient norm :     0.0023719 Eh/α   predicted    -0.2382282E-04 ( -52.77%)
   displ. norm   :     0.1538890 α      lambda       -0.3091929E-04
   maximum displ.:     0.1088414 α      in ANC's #2, #1, #5, ...

........................................................................
.............................. CYCLE   37 ..............................
........................................................................

 iter      E             dE          RMSdq      gap      omega  full diag
   1   -142.0308819 -0.142031E+03  0.178E-02    2.15       0.0  T
   2   -142.0308821 -0.230223E-06  0.103E-02    2.15       1.0  T
   3   -142.0308818  0.262408E-06  0.200E-03    2.15       5.3  T
   4   -142.0308822 -0.327957E-06  0.806E-04    2.15      13.1  T
   5   -142.0308822 -0.252166E-07  0.404E-04    2.15      26.1  T
     SCC iter.                  ...        0 min,  0.594 sec
     gradient                   ...        0 min,  0.177 sec
 * total energy  :  -139.9229481 Eh     change       -0.2684374E-04 Eh
   gradient norm :     0.0016287 Eh/α   predicted    -0.1583070E-04 ( -41.03%)
   displ. norm   :     0.3374316 α      lambda       -0.4928945E-04
   maximum displ.:     0.2128820 α      in ANC's #2, #1, #5, ...

........................................................................
.............................. CYCLE   38 ..............................
........................................................................

 iter      E             dE          RMSdq      gap      omega  full diag
   1   -142.0316439 -0.142032E+03  0.412E-02    2.16       0.0  T
   2   -142.0316452 -0.126965E-05  0.239E-02    2.16       1.0  T
   3   -142.0316443  0.906689E-06  0.423E-03    2.16       2.5  T
   4   -142.0316455 -0.118894E-05  0.166E-03    2.16       6.3  T
   5   -142.0316456 -0.817484E-07  0.851E-04    2.16      12.4  T
   6   -142.0316456 -0.341664E-07  0.403E-04    2.16      26.2  T
     SCC iter.                  ...        0 min,  1.151 sec
     gradient                   ...        0 min,  0.121 sec
 * total energy  :  -139.9229956 Eh     change       -0.4741951E-04 Eh
   gradient norm :     0.0028499 Eh/α   predicted    -0.2589412E-04 ( -45.39%)
   displ. norm   :     0.1806481 α      lambda       -0.3237055E-04
   maximum displ.:     0.1212879 α      in ANC's #2, #1, #5, ...

........................................................................
.............................. CYCLE   39 ..............................
........................................................................

 iter      E             dE          RMSdq      gap      omega  full diag
   1   -142.0311148 -0.142031E+03  0.209E-02    2.16       0.0  T
   2   -142.0311153 -0.494959E-06  0.120E-02    2.16       1.0  T
   3   -142.0311149  0.416549E-06  0.260E-03    2.16       4.1  T
   4   -142.0311154 -0.504038E-06  0.106E-03    2.16       9.9  T
   5   -142.0311154 -0.571859E-07  0.512E-04    2.16      20.6  T
   6   -142.0311154 -0.112421E-07  0.234E-04    2.16      45.1  T
     SCC iter.                  ...        0 min,  0.887 sec
     gradient                   ...        0 min,  0.119 sec
 * total energy  :  -139.9230192 Eh     change       -0.2362462E-04 Eh
   gradient norm :     0.0018130 Eh/α   predicted    -0.1671477E-04 ( -29.25%)
   displ. norm   :     0.2333892 α      lambda       -0.2801390E-04
   maximum displ.:     0.1403641 α      in ANC's #2, #1, #6, ...

........................................................................
.............................. CYCLE   40 ..............................
........................................................................

 iter      E             dE          RMSdq      gap      omega  full diag
   1   -142.0309831 -0.142031E+03  0.263E-02    2.16       0.0  T
   2   -142.0309834 -0.386003E-06  0.151E-02    2.16       1.0  T
   3   -142.0309829  0.529588E-06  0.278E-03    2.16       3.8  T
   4   -142.0309835 -0.625581E-06  0.109E-03    2.16       9.7  T
   5   -142.0309836 -0.459287E-07  0.504E-04    2.16      20.9  T
   6   -142.0309836 -0.154818E-07  0.201E-04    2.16      52.6  T
     SCC iter.                  ...        0 min,  0.611 sec
     gradient                   ...        0 min,  0.147 sec
 * total energy  :  -139.9230541 Eh     change       -0.3495143E-04 Eh
   gradient norm :     0.0015957 Eh/α   predicted    -0.1435072E-04 ( -58.94%)
   displ. norm   :     0.3273089 α      lambda       -0.4375300E-04
   maximum displ.:     0.1833776 α      in ANC's #2, #1, #6, ...

........................................................................
.............................. CYCLE   41 ..............................
........................................................................

 iter      E             dE          RMSdq      gap      omega  full diag
   1   -142.0312896 -0.142031E+03  0.380E-02    2.16       0.0  T
   2   -142.0312904 -0.825475E-06  0.219E-02    2.16       1.0  T
   3   -142.0312895  0.926468E-06  0.404E-03    2.16       2.6  T
   4   -142.0312906 -0.111001E-05  0.155E-03    2.16       6.8  T
   5   -142.0312907 -0.882912E-07  0.695E-04    2.16      15.2  T
   6   -142.0312907 -0.289843E-07  0.277E-04    2.16      38.1  T
     SCC iter.                  ...        0 min,  0.569 sec
     gradient                   ...        0 min,  0.117 sec
 * total energy  :  -139.9231038 Eh     change       -0.4969408E-04 Eh
   gradient norm :     0.0016531 Eh/α   predicted    -0.2292056E-04 ( -53.88%)
   displ. norm   :     0.3413463 α      lambda       -0.3894422E-04
   maximum displ.:     0.1943406 α      in ANC's #2, #1, #13, ...

........................................................................
.............................. CYCLE   42 ..............................
........................................................................

 iter      E             dE          RMSdq      gap      omega  full diag
   1   -142.0309585 -0.142031E+03  0.400E-02    2.16       0.0  T
   2   -142.0309593 -0.779583E-06  0.231E-02    2.16       1.0  T
   3   -142.0309585  0.807712E-06  0.365E-03    2.16       2.9  T
   4   -142.0309594 -0.908710E-06  0.158E-03    2.16       6.7  T
   5   -142.0309595 -0.133071E-06  0.727E-04    2.16      14.5  T
   6   -142.0309595 -0.416316E-07  0.259E-04    2.16      40.7  T
     SCC iter.                  ...        0 min,  0.548 sec
     gradient                   ...        0 min,  0.117 sec
 * total energy  :  -139.9231442 Eh     change       -0.4034073E-04 Eh
   gradient norm :     0.0022832 Eh/α   predicted    -0.2048137E-04 ( -49.23%)
   displ. norm   :     0.1601783 α      lambda       -0.2868511E-04
   maximum displ.:     0.0889348 α      in ANC's #2, #1, #13, ...
 * RMSD in coord.:     0.4632147 α      energy gain  -0.1883053E-02 Eh

generating ANC from exact Hessian ...
Using Lindh-Hessian (1995)
 Shifting diagonal of input Hessian by    9.8881127937299595E-003
 Lowest  eigenvalues of input Hessian
    0.000000    0.000000    0.000000    0.000000    0.000000    0.000000
    0.010000    0.010137    0.010208    0.010244    0.010415    0.010511
    0.010595    0.010641    0.010841    0.011211    0.011335    0.011487
 Highest eigenvalues
    2.010731    2.020086    2.028160    2.072316    2.112429    2.125696


........................................................................
.............................. CYCLE   43 ..............................
........................................................................

 iter      E             dE          RMSdq      gap      omega  full diag
   1   -142.0313658 -0.142031E+03  0.197E-02    2.16       0.0  T
   2   -142.0313660 -0.207114E-06  0.114E-02    2.16       1.0  T
   3   -142.0313656  0.335403E-06  0.229E-03    2.16       4.6  T
   4   -142.0313660 -0.381823E-06  0.828E-04    2.16      12.7  T
   5   -142.0313661 -0.346912E-07  0.339E-04    2.16      31.1  T
     SCC iter.                  ...        0 min,  0.700 sec
     gradient                   ...        0 min,  0.116 sec
 * total energy  :  -139.9231677 Eh     change       -0.2355203E-04 Eh
   gradient norm :     0.0017496 Eh/α   predicted     0.0000000E+00 (-100.00%)
   displ. norm   :     0.0465623 α      lambda       -0.1689236E-04
   maximum displ.:     0.0218382 α      in ANC's #1, #31, #30, ...

........................................................................
.............................. CYCLE   44 ..............................
........................................................................

 iter      E             dE          RMSdq      gap      omega  full diag
   1   -142.0317613 -0.142032E+03  0.791E-03    2.16       0.0  T
   2   -142.0317615 -0.201926E-06  0.471E-03    2.16       2.2  T
   3   -142.0317615  0.296090E-07  0.147E-03    2.16       7.2  T
   4   -142.0317616 -0.675564E-07  0.502E-04    2.16      21.0  T
   5   -142.0317616 -0.685856E-08  0.268E-04    2.16      39.3  T
     SCC iter.                  ...        0 min,  0.826 sec
     gradient                   ...        0 min,  0.122 sec
 * total energy  :  -139.9231895 Eh     change       -0.2175410E-04 Eh
   gradient norm :     0.0007512 Eh/α   predicted    -0.8699985E-05 ( -60.01%)
   displ. norm   :     0.1456426 α      lambda       -0.3741905E-04
   maximum displ.:     0.0712658 α      in ANC's #1, #31, #7, ...

........................................................................
.............................. CYCLE   45 ..............................
........................................................................

 iter      E             dE          RMSdq      gap      omega  full diag
   1   -142.0314752 -0.142031E+03  0.214E-02    2.16       0.0  T
   2   -142.0314763 -0.112684E-05  0.126E-02    2.16       1.0  T
   3   -142.0314762  0.134435E-06  0.365E-03    2.16       2.9  T
   4   -142.0314766 -0.440070E-06  0.132E-03    2.16       8.0  T
   5   -142.0314767 -0.326051E-07  0.713E-04    2.16      14.8  T
   6   -142.0314767 -0.323674E-07  0.307E-04    2.16      34.4  T
     SCC iter.                  ...        0 min,  0.635 sec
     gradient                   ...        0 min,  0.115 sec
 * total energy  :  -139.9232237 Eh     change       -0.3422132E-04 Eh
   gradient norm :     0.0018742 Eh/α   predicted    -0.1888881E-04 ( -44.80%)
   displ. norm   :     0.0914676 α      lambda       -0.1442115E-04
   maximum displ.:     0.0505838 α      in ANC's #1, #31, #7, ...

........................................................................
.............................. CYCLE   46 ..............................
........................................................................

 iter      E             dE          RMSdq      gap      omega  full diag
   1   -142.0314475 -0.142031E+03  0.137E-02    2.15       0.0  T
   2   -142.0314481 -0.671370E-06  0.743E-03    2.15       1.4  T
   3   -142.0314482 -0.165755E-07  0.257E-03    2.15       4.1  T
   4   -142.0314482 -0.571695E-07  0.126E-03    2.15       8.4  T
   5   -142.0314483 -0.637856E-07  0.539E-04    2.15      19.5  T
   6   -142.0314483 -0.439130E-08  0.312E-04    2.15      33.8  T
     SCC iter.                  ...        0 min,  0.883 sec
     gradient                   ...        0 min,  0.119 sec
 * total energy  :  -139.9232361 Eh     change       -0.1239272E-04 Eh
   gradient norm :     0.0019518 Eh/α   predicted    -0.7238669E-05 ( -41.59%)
   displ. norm   :     0.0945700 α      lambda       -0.1479867E-04
   maximum displ.:     0.0566219 α      in ANC's #1, #7, #31, ...

........................................................................
.............................. CYCLE   47 ..............................
........................................................................

 iter      E             dE          RMSdq      gap      omega  full diag
   1   -142.0315362 -0.142032E+03  0.153E-02    2.15       0.0  T
   2   -142.0315367 -0.471271E-06  0.813E-03    2.15       1.3  T
   3   -142.0315367 -0.216338E-07  0.222E-03    2.15       4.7  T
   4   -142.0315368 -0.521079E-07  0.114E-03    2.15       9.2  T
   5   -142.0315368 -0.504796E-07  0.377E-04    2.15      28.0  T
   6   -142.0315368 -0.637908E-08  0.151E-04    2.15      69.7  T
     SCC iter.                  ...        0 min,  0.848 sec
     gradient                   ...        0 min,  0.117 sec
 * total energy  :  -139.9232510 Eh     change       -0.1494421E-04 Eh
   gradient norm :     0.0011773 Eh/α   predicted    -0.7430393E-05 ( -50.28%)
   displ. norm   :     0.0803065 α      lambda       -0.1096692E-04
   maximum displ.:     0.0532913 α      in ANC's #1, #7, #10, ...

........................................................................
.............................. CYCLE   48 ..............................
........................................................................

 iter      E             dE          RMSdq      gap      omega  full diag
   1   -142.0316440 -0.142032E+03  0.151E-02    2.15       0.0  T
   2   -142.0316444 -0.403185E-06  0.755E-03    2.15       1.4  T
   3   -142.0316444 -0.481018E-08  0.228E-03    2.15       4.6  T
   4   -142.0316444 -0.368887E-07  0.108E-03    2.15       9.8  T
   5   -142.0316445 -0.254524E-07  0.515E-04    2.15      20.5  T
   6   -142.0316445 -0.224916E-07  0.202E-04    2.15      52.2  T
     SCC iter.                  ...        0 min,  0.598 sec
     gradient                   ...        0 min,  0.173 sec
 * total energy  :  -139.9232599 Eh     change       -0.8829772E-05 Eh
   gradient norm :     0.0007388 Eh/α   predicted    -0.5503855E-05 ( -37.67%)
   displ. norm   :     0.0707758 α      lambda       -0.9052547E-05
   maximum displ.:     0.0471898 α      in ANC's #1, #10, #4, ...

........................................................................
.............................. CYCLE   49 ..............................
........................................................................

 iter      E             dE          RMSdq      gap      omega  full diag
   1   -142.0315775 -0.142032E+03  0.121E-02    2.15       0.0  T
   2   -142.0315779 -0.369200E-06  0.619E-03    2.15       1.7  T
   3   -142.0315778  0.313466E-07  0.205E-03    2.15       5.1  T
   4   -142.0315779 -0.744393E-07  0.912E-04    2.15      11.6  T
   5   -142.0315779 -0.242957E-07  0.357E-04    2.15      29.5  T
     SCC iter.                  ...        0 min,  0.573 sec
     gradient                   ...        0 min,  0.120 sec
 * total energy  :  -139.9232652 Eh     change       -0.5343995E-05 Eh
   gradient norm :     0.0013713 Eh/α   predicted    -0.4539451E-05 ( -15.06%)
   displ. norm   :     0.0315533 α      lambda       -0.5054837E-05
   maximum displ.:     0.0222758 α      in ANC's #1, #10, #4, ...

........................................................................
.............................. CYCLE   50 ..............................
........................................................................

 iter      E             dE          RMSdq      gap      omega  full diag
   1   -142.0315266 -0.142032E+03  0.576E-03    2.15       0.0  T
   2   -142.0315267 -0.699757E-07  0.307E-03    2.15       3.4  T
   3   -142.0315266  0.194840E-07  0.974E-04    2.15      10.8  T
   4   -142.0315267 -0.255698E-07  0.460E-04    2.15      22.9  T
     SCC iter.                  ...        0 min,  0.550 sec
     gradient                   ...        0 min,  0.120 sec
 * total energy  :  -139.9232709 Eh     change       -0.5708230E-05 Eh
   gradient norm :     0.0008029 Eh/α   predicted    -0.2530167E-05 ( -55.68%)
   displ. norm   :     0.0512812 α      lambda       -0.5736782E-05
   maximum displ.:     0.0332909 α      in ANC's #1, #8, #2, ...

........................................................................
.............................. CYCLE   51 ..............................
........................................................................

 iter      E             dE          RMSdq      gap      omega  full diag
   1   -142.0317851 -0.142032E+03  0.812E-03    2.16       0.0  T
   2   -142.0317852 -0.861543E-07  0.440E-03    2.16       2.4  T
   3   -142.0317851  0.465781E-07  0.123E-03    2.16       8.6  T
   4   -142.0317852 -0.401041E-07  0.609E-04    2.16      17.3  T
   5   -142.0317852 -0.217170E-07  0.249E-04    2.16      42.3  T
     SCC iter.                  ...        0 min,  0.570 sec
     gradient                   ...        0 min,  0.121 sec
 * total energy  :  -139.9232772 Eh     change       -0.6324281E-05 Eh
   gradient norm :     0.0004223 Eh/α   predicted    -0.2874575E-05 ( -54.55%)
   displ. norm   :     0.0606046 α      lambda       -0.4358662E-05
   maximum displ.:     0.0396042 α      in ANC's #1, #8, #4, ...

........................................................................
.............................. CYCLE   52 ..............................
........................................................................

 iter      E             dE          RMSdq      gap      omega  full diag
   1   -142.0317820 -0.142032E+03  0.790E-03    2.16       0.0  T
   2   -142.0317821 -0.448432E-07  0.456E-03    2.16       2.3  T
   3   -142.0317820  0.484989E-07  0.930E-04    2.16      11.3  T
   4   -142.0317821 -0.570449E-07  0.331E-04    2.16      31.8  T
     SCC iter.                  ...        0 min,  0.362 sec
     gradient                   ...        0 min,  0.117 sec
 * total energy  :  -139.9232826 Eh     change       -0.5326911E-05 Eh
   gradient norm :     0.0006089 Eh/α   predicted    -0.2187420E-05 ( -58.94%)
   displ. norm   :     0.0670142 α      lambda       -0.4473506E-05
   maximum displ.:     0.0448905 α      in ANC's #1, #8, #4, ...

........................................................................
.............................. CYCLE   53 ..............................
........................................................................

 iter      E             dE          RMSdq      gap      omega  full diag
   1   -142.0317660 -0.142032E+03  0.887E-03    2.16       0.0  T
   2   -142.0317661 -0.359155E-07  0.508E-03    2.16       2.1  T
   3   -142.0317660  0.132100E-06  0.127E-03    2.16       8.3  T
   4   -142.0317661 -0.141687E-06  0.470E-04    2.16      22.4  T
   5   -142.0317661 -0.951550E-08  0.230E-04    2.16      45.9  T
     SCC iter.                  ...        0 min,  0.484 sec
     gradient                   ...        0 min,  0.116 sec
 * total energy  :  -139.9232883 Eh     change       -0.5753145E-05 Eh
   gradient norm :     0.0006086 Eh/α   predicted    -0.2242592E-05 ( -61.02%)
   displ. norm   :     0.0753316 α      lambda       -0.4797374E-05
   maximum displ.:     0.0525111 α      in ANC's #1, #4, #8, ...

........................................................................
.............................. CYCLE   54 ..............................
........................................................................

 iter      E             dE          RMSdq      gap      omega  full diag
   1   -142.0317415 -0.142032E+03  0.931E-03    2.16       0.0  T
   2   -142.0317415 -0.335668E-07  0.542E-03    2.16       1.9  T
   3   -142.0317414  0.122122E-06  0.117E-03    2.16       9.0  T
   4   -142.0317415 -0.139147E-06  0.307E-04    2.16      34.3  T
   5   -142.0317415 -0.166378E-08  0.196E-04    2.16      53.9  T
     SCC iter.                  ...        0 min,  0.644 sec
     gradient                   ...        0 min,  0.121 sec
 * total energy  :  -139.9232945 Eh     change       -0.6156354E-05 Eh
   gradient norm :     0.0004394 Eh/α   predicted    -0.2409508E-05 ( -60.86%)
   displ. norm   :     0.0711403 α      lambda       -0.4173485E-05
   maximum displ.:     0.0518190 α      in ANC's #1, #4, #2, ...

........................................................................
.............................. CYCLE   55 ..............................
........................................................................

 iter      E             dE          RMSdq      gap      omega  full diag
   1   -142.0316878 -0.142032E+03  0.769E-03    2.16       0.0  T
   2   -142.0316879 -0.242858E-07  0.446E-03    2.16       2.4  T
   3   -142.0316878  0.815969E-07  0.965E-04    2.16      10.9  T
   4   -142.0316879 -0.934828E-07  0.248E-04    2.16      42.5  T
     SCC iter.                  ...        0 min,  0.472 sec
     gradient                   ...        0 min,  0.175 sec
 * total energy  :  -139.9233000 Eh     change       -0.5486834E-05 Eh
   gradient norm :     0.0003070 Eh/α   predicted    -0.2093040E-05 ( -61.85%)
   displ. norm   :     0.0630125 α      lambda       -0.3653404E-05
   maximum displ.:     0.0470463 α      in ANC's #1, #4, #2, ...

........................................................................
.............................. CYCLE   56 ..............................
........................................................................

 iter      E             dE          RMSdq      gap      omega  full diag
   1   -142.0316898 -0.142032E+03  0.563E-03    2.16       0.0  T
   2   -142.0316899 -0.142355E-07  0.327E-03    2.16       3.2  T
   3   -142.0316898  0.868066E-07  0.909E-04    2.16      11.6  T
   4   -142.0316899 -0.947028E-07  0.215E-04    2.16      49.1  T
     SCC iter.                  ...        0 min,  0.531 sec
     gradient                   ...        0 min,  0.119 sec
 * total energy  :  -139.9233050 Eh     change       -0.5011626E-05 Eh
   gradient norm :     0.0003353 Eh/α   predicted    -0.1832829E-05 ( -63.43%)
   displ. norm   :     0.0634300 α      lambda       -0.3826585E-05
   maximum displ.:     0.0474105 α      in ANC's #1, #4, #2, ...

........................................................................
.............................. CYCLE   57 ..............................
........................................................................

 iter      E             dE          RMSdq      gap      omega  full diag
   1   -142.0317163 -0.142032E+03  0.497E-03    2.16       0.0  T
   2   -142.0317163 -0.148548E-07  0.286E-03    2.16       3.7  T
   3   -142.0317163  0.319860E-07  0.645E-04    2.16      16.3  T
   4   -142.0317163 -0.327553E-07  0.264E-04    2.16      40.0  T
     SCC iter.                  ...        0 min,  0.398 sec
     gradient                   ...        0 min,  0.115 sec
 * total energy  :  -139.9233104 Eh     change       -0.5373202E-05 Eh
   gradient norm :     0.0003895 Eh/α   predicted    -0.1918061E-05 ( -64.30%)
   displ. norm   :     0.0728060 α      lambda       -0.4484553E-05
   maximum displ.:     0.0538885 α      in ANC's #1, #4, #2, ...

........................................................................
.............................. CYCLE   58 ..............................
........................................................................

 iter      E             dE          RMSdq      gap      omega  full diag
   1   -142.0317091 -0.142032E+03  0.586E-03    2.16       0.0  T
   2   -142.0317091 -0.170841E-07  0.338E-03    2.16       3.1  T
   3   -142.0317091  0.287165E-07  0.655E-04    2.16      16.1  T
   4   -142.0317091 -0.299850E-07  0.275E-04    2.16      38.3  T
     SCC iter.                  ...        0 min,  0.445 sec
     gradient                   ...        0 min,  0.148 sec
 * total energy  :  -139.9233166 Eh     change       -0.6240974E-05 Eh
   gradient norm :     0.0003873 Eh/α   predicted    -0.2248350E-05 ( -63.97%)
   displ. norm   :     0.0881740 α      lambda       -0.5123206E-05
   maximum displ.:     0.0648566 α      in ANC's #1, #4, #2, ...

........................................................................
.............................. CYCLE   59 ..............................
........................................................................

 iter      E             dE          RMSdq      gap      omega  full diag
   1   -142.0317409 -0.142032E+03  0.738E-03    2.15       0.0  T
   2   -142.0317410 -0.264065E-07  0.423E-03    2.16       2.5  T
   3   -142.0317409  0.350108E-07  0.796E-04    2.16      13.2  T
   4   -142.0317410 -0.348305E-07  0.358E-04    2.16      29.4  T
     SCC iter.                  ...        0 min,  0.437 sec
[...]
    34   6 C        2.915    -0.024    28.608     8.771
    35   6 C        2.917    -0.024    28.612     8.772
    36   6 C        2.917    -0.035    28.860     8.809
    37   6 C        2.988     0.010    27.782     8.646
    38   6 C        2.977    -0.014    28.345     8.733
    39   6 C        2.979    -0.009    28.242     8.717
    40   6 C        3.194     0.052    26.337     8.368
    41   6 C        2.914    -0.046    29.141     8.852
    42   6 C        2.919    -0.034    28.840     8.806
    43   6 C        2.986     0.012    27.734     8.639
    44   6 C        2.919    -0.031    28.779     8.797
    45   6 C        2.915    -0.022    28.549     8.762
    46   6 C        2.917    -0.022    28.562     8.764
    47   6 C        2.917    -0.032    28.788     8.798
    48   6 C        2.988     0.011    27.768     8.644
    49   7 N        2.684    -0.128    23.779     7.242
    50   6 C        3.763    -0.033    21.199     6.563
    51   1 H        0.925     0.056     2.240     2.341
    52   1 H        0.925     0.062     2.175     2.306
    53   1 H        0.925     0.049     2.338     2.391
    54   1 H        0.924     0.050     2.325     2.384
    55   1 H        0.925     0.051     2.310     2.377
    56   1 H        0.925     0.065     2.146     2.291
    57   1 H        0.925     0.046     2.371     2.408
    58   1 H        0.925     0.058     2.225     2.332
    59   1 H        0.925     0.061     2.189     2.314
    60   1 H        0.925     0.057     2.236     2.338
    61   1 H        0.925     0.064     2.149     2.293
    62   1 H        0.925     0.047     2.359     2.402
    63   1 H        0.925     0.055     2.262     2.352
    64   1 H        0.926     0.054     2.275     2.359
    65   1 H        0.926     0.058     2.224     2.332
    66   1 H        0.926     0.057     2.235     2.338
    67   1 H        0.926     0.042     2.423     2.434
    68   1 H        0.925     0.032     2.555     2.500
    69   1 H        0.926     0.068     2.112     2.272
    70   1 H        0.926     0.068     2.107     2.270
    71   1 H        0.926     0.075     2.031     2.228
    72   1 H        0.926     0.081     1.967     2.193
    73   1 H        0.925     0.074     2.047     2.237
    74   1 H        0.924     0.062     2.174     2.306
    75   1 H        0.925     0.075     2.030     2.228
    76   1 H        0.926     0.052     2.299     2.371
    77   1 H        0.926     0.053     2.284     2.363
    78   1 H        0.926     0.048     2.349     2.397
    79   1 H        0.926     0.050     2.325     2.385
    80   1 H        0.926     0.046     2.370     2.408
    81   1 H        0.926     0.035     2.511     2.478
    82   1 H        0.926     0.038     2.471     2.458
    83   1 H        0.926     0.054     2.270     2.356
    84   1 H        0.926     0.049     2.335     2.390
    85   1 H        0.926     0.052     2.293     2.368
    86   1 H        0.926     0.049     2.327     2.385
    87   1 H        0.926     0.040     2.450     2.448
    88   1 H        0.924     0.052     2.295     2.369
    89   1 H        0.925     0.061     2.191     2.315
    90   1 H        0.925     0.065     2.142     2.289

 Mol. C6AA /au·bohr⁶  :     110102.370001
 Mol. C8AA /au·bohr⁸  :    2930588.814909
 Mol. α(0) /au        :        528.691926


Wiberg/Mayer (AO) data.
largest (>0.10) Wiberg bond orders for each atom

 ---------------------------------------------------------------------------
     #   Z sym  total        # sym  WBO       # sym  WBO       # sym  WBO
 ---------------------------------------------------------------------------
     1   6 C    3.989 --     2 C    1.004    52 H    0.978    53 H    0.977
                            51 H    0.976
     2   6 C    3.956 --     1 C    1.004     3 C    1.000    54 H    0.939
                             4 N    0.931
     3   6 C    3.988 --     2 C    1.000    55 H    0.982    56 H    0.980
                            57 H    0.975
     4   7 N    3.395 --    14 P    1.245     2 C    0.931     5 C    0.920
     5   6 C    3.956 --     7 C    0.995     6 C    0.983     8 C    0.973
                             4 N    0.920
     6   6 C    3.988 --     5 C    0.983    58 H    0.979    59 H    0.978
                            60 H    0.973
     7   6 C    3.991 --     5 C    0.995    63 H    0.978    61 H    0.977
                            62 H    0.974
     8   6 C    3.985 --     9 C    1.384    13 C    1.377     5 C    0.973
                            11 C    0.103
     9   6 C    3.987 --    10 C    1.440     8 C    1.384    64 H    0.964
                            12 C    0.104
    10   6 C    3.988 --    11 C    1.440     9 C    1.440    65 H    0.968
                            13 C    0.108
    11   6 C    3.982 --    10 C    1.440    12 C    1.429    66 H    0.969
                             8 C    0.103
    12   6 C    3.989 --    13 C    1.450    11 C    1.429    67 H    0.969
                             9 C    0.104
    13   6 C    3.991 --    12 C    1.450     8 C    1.377    68 H    0.954
                            10 C    0.108
    14  15 P    5.173 --     4 N    1.245    49 N    1.215    27 N    1.200
                            15 S    1.012
    15  16 S    2.504 --    16 S    1.135    14 P    1.012
    16  16 S    2.359 --    15 S    1.135    17 C    0.992
    17   6 C    3.965 --    18 C    1.403    22 C    1.381    16 S    0.992
                            20 C    0.102
    18   6 C    3.986 --    19 C    1.441    17 C    1.403    69 H    0.959
                            21 C    0.106
    19   6 C    3.988 --    18 C    1.441    20 C    1.434    70 H    0.966
                            22 C    0.105
    20   6 C    3.979 --    21 C    1.438    19 C    1.434    71 H    0.966
                            17 C    0.102
    21   6 C    3.985 --    20 C    1.438    22 C    1.413    72 H    0.962
                            18 C    0.106
    22   6 C    3.974 --    21 C    1.413    17 C    1.381    23 C    0.949
                            19 C    0.105
    23   6 C    3.830 --    26 F    0.961    24 F    0.958    22 C    0.949
                            25 F    0.924
    24   9 F    1.091 --    23 C    0.958
    25   9 F    1.059 --    23 C    0.924
    26   9 F    1.087 --    23 C    0.961
    27   7 N    3.443 --    14 P    1.200    29 C    1.000    28 C    0.971
    28   6 C    3.959 --    73 H    0.977    27 N    0.971    74 H    0.969
                            75 H    0.954
    29   6 C    3.949 --    38 C    1.451    30 C    1.277    27 N    1.000
    30   6 C    3.987 --    31 C    1.558    29 C    1.277    76 H    0.962
    31   6 C    3.984 --    30 C    1.558    32 C    1.269    77 H    0.966
                            38 C    0.105
    32   6 C    3.986 --    33 C    1.281    31 C    1.269    37 C    1.255
    33   6 C    3.988 --    34 C    1.553    32 C    1.281    78 H    0.967
                            36 C    0.117
    34   6 C    3.985 --    33 C    1.553    35 C    1.324    79 H    0.969
    35   6 C    3.990 --    36 C    1.551    34 C    1.324    80 H    0.970
    36   6 C    3.989 --    35 C    1.551    37 C    1.286    81 H    0.965
                            33 C    0.117
    37   6 C    3.987 --    36 C    1.286    32 C    1.255    38 C    1.229
    38   6 C    3.985 --    29 C    1.451    37 C    1.229    39 C    1.032
                            31 C    0.105
    39   6 C    3.986 --    40 C    1.451    48 C    1.231    38 C    1.032
                            42 C    0.105
    40   6 C    3.950 --    39 C    1.451    41 C    1.289    49 N    0.958
    41   6 C    3.986 --    42 C    1.552    40 C    1.289    82 H    0.961
    42   6 C    3.984 --    41 C    1.552    43 C    1.273    83 H    0.966
                            39 C    0.105
    43   6 C    3.988 --    44 C    1.282    42 C    1.273    48 C    1.253
    44   6 C    3.988 --    45 C    1.553    43 C    1.282    84 H    0.967
                            47 C    0.117
    45   6 C    3.986 --    44 C    1.553    46 C    1.324    85 H    0.969
    46   6 C    3.988 --    47 C    1.551    45 C    1.324    86 H    0.969
    47   6 C    3.988 --    46 C    1.551    48 C    1.287    87 H    0.966
                            44 C    0.117
    48   6 C    3.987 --    47 C    1.287    43 C    1.253    39 C    1.231
    49   7 N    3.405 --    14 P    1.215    50 C    0.972    40 C    0.958
    50   6 C    3.960 --    88 H    0.977    90 H    0.974    49 N    0.972
                            89 H    0.967
    51   1 H    0.997 --     1 C    0.976
    52   1 H    0.995 --     1 C    0.978
    53   1 H    0.998 --     1 C    0.977
    54   1 H    0.997 --     2 C    0.939
    55   1 H    0.997 --     3 C    0.982
    56   1 H    0.996 --     3 C    0.980
    57   1 H    0.998 --     3 C    0.975
    58   1 H    0.997 --     6 C    0.979
    59   1 H    0.995 --     6 C    0.978
    60   1 H    0.995 --     6 C    0.973
    61   1 H    0.995 --     7 C    0.977
    62   1 H    0.998 --     7 C    0.974
    63   1 H    0.997 --     7 C    0.978
    64   1 H    0.997 --     9 C    0.964
    65   1 H    0.996 --    10 C    0.968
    66   1 H    0.996 --    11 C    0.969
    67   1 H    0.998 --    12 C    0.969
    68   1 H    0.999 --    13 C    0.954
    69   1 H    0.995 --    18 C    0.959
    70   1 H    0.994 --    19 C    0.966
    71   1 H    0.993 --    20 C    0.966
    72   1 H    0.993 --    21 C    0.962
    73   1 H    0.994 --    28 C    0.977
    74   1 H    0.996 --    28 C    0.969
    75   1 H    0.993 --    28 C    0.954
    76   1 H    0.996 --    30 C    0.962
    77   1 H    0.996 --    31 C    0.966
    78   1 H    0.997 --    33 C    0.967
    79   1 H    0.997 --    34 C    0.969
    80   1 H    0.997 --    35 C    0.970
    81   1 H    0.998 --    36 C    0.965
    82   1 H    0.997 --    41 C    0.961
    83   1 H    0.996 --    42 C    0.966
    84   1 H    0.997 --    44 C    0.967
    85   1 H    0.996 --    45 C    0.969
    86   1 H    0.997 --    46 C    0.969
    87   1 H    0.998 --    47 C    0.966
    88   1 H    0.997 --    50 C    0.977
    89   1 H    0.996 --    50 C    0.967
    90   1 H    0.995 --    50 C    0.974
 ---------------------------------------------------------------------------

Topologies differ in total number of bonds
Writing topology from bond orders to xtbtopo.mol

molecular dipole:
                 x           y           z       tot (Debye)
 q only:       -1.113      -0.497      -0.148
   full:       -0.959      -0.392       0.132       2.654
molecular quadrupole (traceless):
                xx          xy          yy          xz          yz          zz
 q only:       -9.831     -15.976      24.345       3.354       6.410     -14.514
  q+dip:       -6.217     -15.863      18.748       3.665       5.570     -12.531
   full:       -9.187     -14.835      23.598       4.116       6.199     -14.412

           -------------------------------------------------
          |                Geometry Summary                 |
           -------------------------------------------------

      molecular mass/u    :      726.8764578
   center of mass at/Å    :        0.3564496       0.4744869      -0.0714866
  moments of inertia/u·Å² :        0.6203796E+04   0.8404168E+04   0.1161651E+05
rotational constants/cm⁻¹ :        0.2717309E-02   0.2005866E-02   0.1451178E-02

 * 91 selected distances

     #   Z          #   Z                                           value/Å
     1   6 C        2   6 C                                       1.5281361
     2   6 C        3   6 C                                       1.5311164
     2   6 C        4   7 N                                       1.4811264
     5   6 C        6   6 C                                       1.5333987
     5   6 C        7   6 C                                       1.5315880
     8   6 C        9   6 C                                       1.3939862
     9   6 C       10   6 C                                       1.3842719
    10   6 C       11   6 C                                       1.3829475
    11   6 C       12   6 C                                       1.3847256
     8   6 C       13   6 C                                       1.3951015
    12   6 C       13   6 C                                       1.3823539
     4   7 N       14  15 P                                       1.6601944
    14  15 P       15  16 S                                       2.1198840 (max)
    15  16 S       16  16 S                                       2.0583423
    17   6 C       18   6 C                                       1.3891389
    18   6 C       19   6 C                                       1.3828410
    19   6 C       20   6 C                                       1.3848501
    20   6 C       21   6 C                                       1.3836244
    17   6 C       22   6 C                                       1.3942807
    21   6 C       22   6 C                                       1.3913024
    23   6 C       24   9 F                                       1.3358455
    23   6 C       25   9 F                                       1.3559688
    23   6 C       26   9 F                                       1.3341190
    14  15 P       27   7 N                                       1.6691740
    27   7 N       28   6 C                                       1.4591121
    27   7 N       29   6 C                                       1.4230874
    29   6 C       30   6 C                                       1.4107568
    30   6 C       31   6 C                                       1.3640881
    31   6 C       32   6 C                                       1.4097502
    32   6 C       33   6 C                                       1.4097233
    33   6 C       34   6 C                                       1.3664198
    34   6 C       35   6 C                                       1.4025109
    35   6 C       36   6 C                                       1.3677334
    32   6 C       37   6 C                                       1.4188327
    36   6 C       37   6 C                                       1.4118470
    29   6 C       38   6 C                                       1.3802484
    37   6 C       38   6 C                                       1.4276250
    39   6 C       40   6 C                                       1.3763226
    40   6 C       41   6 C                                       1.4052251
    41   6 C       42   6 C                                       1.3652776
    42   6 C       43   6 C                                       1.4109410
    43   6 C       44   6 C                                       1.4101154
    44   6 C       45   6 C                                       1.3668955
    45   6 C       46   6 C                                       1.4029356
    46   6 C       47   6 C                                       1.3675516
    39   6 C       48   6 C                                       1.4243355
    43   6 C       48   6 C                                       1.4203598
    47   6 C       48   6 C                                       1.4106535
    14  15 P       49   7 N                                       1.6581993
    40   6 C       49   7 N                                       1.4311821
    49   7 N       50   6 C                                       1.4529692
     1   6 C       51   1 H                                       1.0852688
     1   6 C       52   1 H                                       1.0875041
     1   6 C       53   1 H                                       1.0849817
     2   6 C       54   1 H                                       1.0971079
     3   6 C       55   1 H                                       1.0874596
     3   6 C       56   1 H                                       1.0847827
     3   6 C       57   1 H                                       1.0848839
     6   6 C       58   1 H                                       1.0841616
     6   6 C       59   1 H                                       1.0881740
     6   6 C       60   1 H                                       1.0843913
     7   6 C       61   1 H                                       1.0861104
     7   6 C       62   1 H                                       1.0878444
     7   6 C       63   1 H                                       1.0860511
     9   6 C       64   1 H                                       1.0771470
    10   6 C       65   1 H                                       1.0784274
    11   6 C       66   1 H                                       1.0780022
    12   6 C       67   1 H                                       1.0798370
    13   6 C       68   1 H                                       1.0812272
    18   6 C       69   1 H                                       1.0777471
    19   6 C       70   1 H                                       1.0788918
    20   6 C       71   1 H                                       1.0781568
    21   6 C       72   1 H                                       1.0789606
    28   6 C       73   1 H                                       1.0895773
    28   6 C       74   1 H                                       1.0930264
    28   6 C       75   1 H                                       1.0872592
    30   6 C       76   1 H                                       1.0761411 (min)
    31   6 C       77   1 H                                       1.0792606
    33   6 C       78   1 H                                       1.0797837
    34   6 C       79   1 H                                       1.0789451
    35   6 C       80   1 H                                       1.0792898
    36   6 C       81   1 H                                       1.0788643
    41   6 C       82   1 H                                       1.0799691
    42   6 C       83   1 H                                       1.0793277
    44   6 C       84   1 H                                       1.0797851
    45   6 C       85   1 H                                       1.0789641
    46   6 C       86   1 H                                       1.0791170
    47   6 C       87   1 H                                       1.0792822
    50   6 C       88   1 H                                       1.0930503
    50   6 C       89   1 H                                       1.0879614
    50   6 C       90   1 H                                       1.0895470

 * 7 distinct bonds (by element types)

   Z      Z             #   av. dist./Å        max./Å        min./Å
   1 H    6 C          40     1.0831568     1.0971079     1.0761411
   6 C    6 C          38     1.4079951     1.5333987     1.3640881
   6 C    7 N           5     1.4494954     1.4811264     1.4230874
   6 C    9 F           3     1.3419778     1.3559688     1.3341190
   7 N   15 P           3     1.6625226     1.6691740     1.6581993
  15 P   16 S           1     2.1198840     2.1198840     2.1198840
  16 S   16 S           1     2.0583423     2.0583423     2.0583423


optimized geometry written to: xtbopt.xyz


           -------------------------------------------------
          | TOTAL ENERGY             -139.923403784749 Eh   |
          | GRADIENT NORM               0.000039133790 Eh/α |
          | HOMO-LUMO GAP               2.156718429486 eV   |
           -------------------------------------------------

------------------------------------------------------------------------
 * finished run on 2024/12/16 at 16:37:47.892     
------------------------------------------------------------------------
 total:
 * wall-time:     0 d,  0 h,  1 min, 46.915 sec
 *  cpu-time:     0 d,  0 h, 13 min, 58.604 sec
 * ratio c/w:     7.844 speedup
 SCF:
 * wall-time:     0 d,  0 h,  0 min,  1.676 sec
 *  cpu-time:     0 d,  0 h,  0 min, 13.330 sec
 * ratio c/w:     7.951 speedup
 ANC optimizer:
 * wall-time:     0 d,  0 h,  1 min, 44.939 sec
 *  cpu-time:     0 d,  0 h, 13 min, 43.715 sec
 * ratio c/w:     7.849 speedup

