85
 energy: -126.265783913909 gnorm: 0.133818425247 xtb: 6.7.1 (edcfbbe)
C           -1.06501700000000        2.15164600000000       -0.69737400000000
N           -0.13180200000000        1.11520100000000       -0.26789500000000
C            0.86205100000000        0.76027700000000       -1.22466100000000
C            0.58466400000000        0.84229400000000       -2.60416500000000
C            1.50977300000000        0.45845100000000       -3.56813100000000
C            2.74284000000000       -0.05814000000000       -3.19130500000000
C            3.63606000000000       -0.50146800000000       -4.18293600000000
C            4.86295300000000       -1.06395200000000       -3.84425900000000
C            5.20356900000000       -1.19869300000000       -2.50861600000000
C            4.32293000000000       -0.75221200000000       -1.51900300000000
C            3.07593700000000       -0.14116200000000       -1.81713800000000
C            2.15668600000000        0.34379400000000       -0.80764500000000
C            2.55095400000000        0.46484300000000        0.56690100000000
C            1.82709700000000       -0.22220900000000        1.57751200000000
C            2.35077700000000       -0.27137100000000        2.88394200000000
C            3.51824800000000        0.39778500000000        3.23291200000000
C            4.19128300000000        1.17221600000000        2.29605300000000
C            5.32709300000000        1.90004700000000        2.69173100000000
C            6.00135900000000        2.72322700000000        1.79485000000000
C            5.54064800000000        2.83323300000000        0.49331500000000
C            4.41715400000000        2.10521700000000        0.09165500000000
C            3.71497500000000        1.23076000000000        0.96328400000000
N            0.59558700000000       -0.86295500000000        1.25532800000000
C            0.27225000000000       -2.02242800000000        2.08425400000000
P           -0.72032500000000        0.05260500000000        0.84551000000000
S           -1.59110700000000        0.96179900000000        2.53902900000000
S           -0.09376900000000        2.13069500000000        3.31296300000000
C           -0.23291000000000        3.65394800000000        2.40439000000000
C            0.82943500000000        4.07568700000000        1.59864300000000
C            0.74372100000000        5.27232200000000        0.88401700000000
C           -0.40181800000000        6.06065700000000        0.97968100000000
C           -1.45963600000000        5.65494500000000        1.79227300000000
C           -1.37401800000000        4.45723500000000        2.50625300000000
N           -1.79294100000000       -0.95326900000000        0.08210400000000
C           -1.30187100000000       -1.74631000000000       -1.06160800000000
C           -2.12617700000000       -2.96006600000000       -1.44721600000000
C           -2.67173200000000       -3.06022200000000       -2.73753200000000
C           -3.42480200000000       -4.17593600000000       -3.10831300000000
C           -3.63713700000000       -5.20788900000000       -2.19692700000000
C           -3.09272400000000       -5.12716700000000       -0.91700500000000
C           -2.33701700000000       -4.01313100000000       -0.54670000000000
C           -3.15631600000000       -0.45715000000000       -0.16189200000000
C           -4.25072600000000       -1.34529300000000        0.39290200000000
C           -5.34331600000000       -1.70325500000000       -0.41191100000000
C           -6.37108200000000       -2.50150200000000        0.09460800000000
C           -6.32556000000000       -2.94376100000000        1.41483500000000
C           -5.25283900000000       -2.58828700000000        2.22908400000000
C           -4.22388600000000       -1.79198900000000        1.72256600000000
H           -1.63386200000000        2.55565100000000        0.14178400000000
H           -0.53897400000000        2.99860000000000       -1.15234300000000
H           -1.79852200000000        1.76550000000000       -1.41234700000000
H           -0.38337500000000        1.17827200000000       -2.96228200000000
H            1.23442200000000        0.53245600000000       -4.61742900000000
H            3.37499100000000       -0.42203200000000       -5.23623100000000
H            5.54030100000000       -1.40912000000000       -4.61989100000000
H            6.14851000000000       -1.65441000000000       -2.22533900000000
H            4.62326300000000       -0.90475300000000       -0.48360300000000
H            1.83225700000000       -0.79950400000000        3.67820700000000
H            3.86476400000000        0.34035000000000        4.26206100000000
H            5.68981900000000        1.84017500000000        3.71597200000000
H            6.87322600000000        3.28492300000000        2.11736400000000
H            6.04609600000000        3.48377400000000       -0.21481300000000
H            4.07858200000000        2.24267100000000       -0.93377700000000
H            1.13920400000000       -2.68315200000000        2.20297500000000
H           -0.50382500000000       -2.63296200000000        1.61979200000000
H           -0.09766000000000       -1.73088600000000        3.07284200000000
H            1.72807900000000        3.46877500000000        1.51263900000000
H            1.57381600000000        5.58512900000000        0.25575200000000
H           -0.46664700000000        6.99428100000000        0.42688600000000
H           -2.34985700000000        6.27300500000000        1.87594400000000
H           -2.20237800000000        4.15611400000000        3.14319700000000
H           -0.29053500000000       -2.11839100000000       -0.86101700000000
H           -1.21416300000000       -1.09391300000000       -1.93569300000000
H           -2.51447400000000       -2.26539100000000       -3.46272100000000
H           -3.84669000000000       -4.23874500000000       -4.10778800000000
H           -4.22757300000000       -6.07398100000000       -2.48220500000000
H           -3.26210900000000       -5.92694200000000       -0.20152300000000
H           -1.93228800000000       -3.96012200000000        0.45934300000000
H           -3.30386100000000        0.52420500000000        0.30260500000000
H           -3.31446400000000       -0.26882400000000       -1.23187700000000
H           -5.39188100000000       -1.37726100000000       -1.44836600000000
H           -7.20338900000000       -2.78285900000000       -0.54493400000000
H           -7.12387300000000       -3.56703600000000        1.80794300000000
H           -5.21385900000000       -2.93182300000000        3.25935000000000
H           -3.39258400000000       -1.53084500000000        2.37115400000000
85
 energy: -126.285351092452 gnorm: 0.058075496073 xtb: 6.7.1 (edcfbbe)
C           -1.05794329725013        2.16187047991273       -0.69826886983484
N           -0.10039015339508        1.14029160500517       -0.27952033431029
C            0.88894776480349        0.76440227333859       -1.23665152826622
C            0.58183156221448        0.82930391249130       -2.60618836865823
C            1.49423145850543        0.45977544620012       -3.56216904549534
C            2.74266926135121       -0.05644710047735       -3.19368865124330
C            3.64096296254448       -0.50429398633256       -4.18033162333143
C            4.85098886655953       -1.05699441060216       -3.83491283669142
C            5.18301821301521       -1.18726941675406       -2.48711180966826
C            4.32177614192078       -0.73973493438439       -1.50410696738967
C            3.08369215763137       -0.13324714330459       -1.81556808837781
C            2.16353149671925        0.35634530819544       -0.82328928609627
C            2.56243351581686        0.45931382488584        0.57640612006351
C            1.84194845762849       -0.20870643997830        1.57621593420590
C            2.33875899778540       -0.25214844619415        2.88972331996953
C            3.49887850003723        0.39439250625694        3.23657254177131
C            4.18985931188462        1.17185128627447        2.29862394418030
C            5.32774662533965        1.90368976446119        2.68732164097206
C            5.98799678110945        2.71209259094210        1.79292977683601
C            5.51477907201113        2.81480191007550        0.48542144736594
C            4.40941304788672        2.09243375483335        0.07940257446468
C            3.71891461712715        1.22621310970880        0.95802329544107
N            0.62038326663805       -0.88024182754310        1.24560536436374
C            0.27207808035564       -2.02933033355167        2.08121304630751
P           -0.68950472983201        0.03354127489560        0.80733013488190
S           -1.62561726794118        0.98256385005549        2.46945984396807
S           -0.09349704402595        2.11472735575027        3.26492635566671
C           -0.23560461829961        3.66044856166610        2.38617690868812
C            0.82575630375672        4.07080772751902        1.58781302548103
C            0.74072944759727        5.26623857786893        0.88990996556007
C           -0.39997323300568        6.05050946927328        0.98670806109895
C           -1.45349831564127        5.64553013359114        1.79469051784549
C           -1.37165734340674        4.45538636805703        2.50202555403905
N           -1.80021205737923       -0.97014130603854        0.07700760560436
C           -1.29647574421355       -1.75473321777980       -1.06546488001909
C           -2.14818115056280       -2.95152337271705       -1.43438768990769
C           -2.68228529825916       -3.05401976001191       -2.71838500379207
C           -3.41893038075809       -4.16818585119844       -3.09382018014894
C           -3.63315917502372       -5.19587252152749       -2.18970487289148
C           -3.09577478323847       -5.11151800194497       -0.91502597494589
C           -2.35511983519540       -3.99979207675460       -0.54237602046153
C           -3.16352933938576       -0.45981140920535       -0.14225879450540
C           -4.24940997599251       -1.36477260590027        0.39279982936288
C           -5.33228763034966       -1.71786006604169       -0.40813483232075
C           -6.35841621457653       -2.50196692964490        0.09716357314081
C           -6.31513198707361       -2.94099509623601        1.41072182417029
C           -5.24512227132875       -2.58847456811315        2.21835719180162
C           -4.22021051978184       -1.80294293287703        1.71299241645896
H           -1.61480289113407        2.54667801006958        0.15997123094424
H           -0.52554500322787        2.99998070864958       -1.14954230643892
H           -1.79047976348447        1.78088503258254       -1.41709758303749
H           -0.38222789899105        1.18163766946742       -2.94540683550603
H            1.22820963930724        0.54373108590368       -4.60672606581754
H            3.37204876536875       -0.42354503503930       -5.22509096112885
H            5.53011242052033       -1.40100053091580       -4.60398989769767
H            6.12246915278155       -1.64434151742101       -2.20657483504506
H            4.61217956817783       -0.88309785796016       -0.47148956213425
H            1.82084774616699       -0.79911209083714        3.66425077504265
H            3.85625820274029        0.32677992377510        4.25463818860591
H            5.68131318527743        1.83928077092777        3.70767298952839
H            6.85829934502967        3.27274086474732        2.10830211574954
H            6.01669469074034        3.46571524064650       -0.21791957394483
H            4.06645891710047        2.21891599336681       -0.93935175094733
H            1.14773951135891       -2.66925800468333        2.20024016285764
H           -0.50842515584503       -2.61862122778445        1.59666393222322
H           -0.09495938153899       -1.73756604126331        3.07059227977367
H            1.71993302834742        3.46461108593278        1.51402183975133
H            1.56743561737199        5.57972847040697        0.26761947744410
H           -0.46579222481948        6.97996165283860        0.43699678884883
H           -2.33911662807818        6.25996291443722        1.88021199811502
H           -2.19349442947994        4.14780510752502        3.13601652548688
H           -0.28381237020449       -2.10759015559278       -0.83610441332611
H           -1.21663230946860       -1.10150161158002       -1.94325672379803
H           -2.51391740276555       -2.26646945998709       -3.44292286429348
H           -3.83259643448910       -4.23148797384724       -4.09168773475343
H           -4.21604649340045       -6.06060296016643       -2.47742469979508
H           -3.25385599394063       -5.91400626466070       -0.20753175361942
H           -1.93749788879634       -3.95294844130932        0.45434049730381
H           -3.28143795361503        0.52180495787033        0.33861176135577
H           -3.31833696239029       -0.29659894874492       -1.21693795716115
H           -5.38240543307465       -1.37963700280837       -1.43545114583914
H           -7.19082111299425       -2.77358954680138       -0.53772421562641
H           -7.11299724375848       -3.55643409722513        1.80403512371893
H           -5.20980387650954       -2.92315200133124        3.24641361430005
H           -3.39438548260543       -1.52517005533317        2.35744942350644
85
 energy: -126.291765058181 gnorm: 0.013983471114 xtb: 6.7.1 (edcfbbe)
C           -1.04404574287582        2.18447822362658       -0.69686622615883
N           -0.06979586660526        1.17698578725560       -0.28084908609160
C            0.90864581816898        0.77404293419562       -1.24328251352793
C            0.57897641369156        0.83000049854041       -2.60891215055069
C            1.48244384451406        0.46306741344016       -3.55875774789582
C            2.74011075575188       -0.05255709860722       -3.19275049342021
C            3.64490488387375       -0.50558920042740       -4.17303104731105
C            4.84406387618030       -1.05071286623468       -3.81732914329499
C            5.16915127239816       -1.17302576443351       -2.45911313364310
C            4.31868607963208       -0.72345807093296       -1.48466317687941
C            3.08383008452084       -0.12495348220805       -1.81285303435206
C            2.16258859977132        0.36769430088532       -0.83454657588275
C            2.56269242399383        0.45546024427515        0.58512179931208
C            1.84811284152807       -0.20012482985586        1.57090255738123
C            2.32570236782026       -0.24561563824261        2.89234276858267
C            3.47874472752299        0.39109469897286        3.23911317252188
C            4.18149728661307        1.16973800108945        2.29994615566073
C            5.32306594173961        1.90398109876317        2.68002133675631
C            5.97241658594054        2.70079168814427        1.78243565420886
C            5.49004198940999        2.79450638177202        0.46929737365676
C            4.39704148702192        2.07580178171677        0.06453762518218
C            3.71308107580308        1.22162949387578        0.95628686656834
N            0.63306478826997       -0.89264583759525        1.23332360678278
C            0.27006797024704       -2.03779200372382        2.07089897599428
P           -0.66626812282265        0.02341249073260        0.76963207553572
S           -1.63127653531195        0.98450031037294        2.39458758367454
S           -0.09845235739131        2.08875872429928        3.21733159998669
C           -0.23815140655859        3.65398499039645        2.36205998782905
C            0.82811879573225        4.06126055257203        1.57603539654475
C            0.74311217585568        5.26057427817767        0.89213652874045
C           -0.39669230100189        6.04125476629427        0.99201515970354
C           -1.44861148409256        5.63401814704493        1.79698874184055
C           -1.37202902638386        4.44159315826258        2.49306749974657
N           -1.80453038978854       -0.98370771120875        0.07295993924382
C           -1.28894699310573       -1.75949435892661       -1.06895575580561
C           -2.14821125332112       -2.94807834444900       -1.42640000767838
C           -2.68564054998463       -3.04510968844299       -2.70344136987550
C           -3.42327311454211       -4.15352015675174       -3.07782246675790
C           -3.63614792818934       -5.18102407014865       -2.17739415797664
C           -3.10322111239599       -5.09384160563315       -0.90352376921302
C           -2.36243182201483       -3.98739964568399       -0.53225028018746
C           -3.16605306939257       -0.46429462892109       -0.13193931093927
C           -4.24400091828875       -1.37664982187154        0.39492507743204
C           -5.31844517132276       -1.72923908373294       -0.40793457517642
C           -6.34280300949932       -2.50898647305298        0.09612975869941
C           -6.30167085207316       -2.94554669629011        1.40793541801920
C           -5.23259846755754       -2.59524633254055        2.21410244308391
C           -4.21139692009633       -1.81137080586279        1.71091880722989
H           -1.58732067522898        2.55149347964825        0.17640248852871
H           -0.50894841341978        3.01810672076025       -1.14622312472665
H           -1.77876332724489        1.80469893590762       -1.41316274930066
H           -0.38856890151112        1.18352702545568       -2.92705676856382
H            1.22720279167590        0.54302403141774       -4.60333206034491
H            3.36637811335281       -0.42408069698548       -5.21245507465722
H            5.52859239541222       -1.39801284796318       -4.57610740703955
H            6.10379774628135       -1.63501423047223       -2.18092100550985
H            4.59696129364502       -0.84939566717603       -0.44990332036806
H            1.79177057233090       -0.79125593069236        3.65212633690083
H            3.84685411478392        0.32469321714695        4.25023628377184
H            5.66727623807047        1.83510090880187        3.70037035172708
H            6.84164623134730        3.26427580951922        2.08599879006690
H            5.98863927144011        3.44868159499111       -0.22954897487604
H            4.04722634084797        2.18375225414960       -0.95059825276718
H            1.14903597779103       -2.66858070055411        2.18928164209030
H           -0.51418250927348       -2.60567326412798        1.57034452770802
H           -0.09606930811428       -1.74598495952421        3.05974544851514
H            1.71440783028590        3.44893482079276        1.50567982826083
H            1.56862227140208        5.57926121407841        0.27586759101287
H           -0.46331666991430        6.97051778678800        0.44819833995895
H           -2.33060007661032        6.24800448682710        1.88770826946697
H           -2.18670051869660        4.12597360585478        3.12741026398667
H           -0.27777035710730       -2.09792428891646       -0.81422054879156
H           -1.21072257424770       -1.11168429271123       -1.95277317974710
H           -2.51537891716666       -2.25735735819109       -3.42388406682744
H           -3.82345365972254       -4.22039393497010       -4.07808446868770
H           -4.20553973393998       -6.04963300492331       -2.47016354608649
H           -3.25264110895664       -5.89898385610246       -0.20125491932278
H           -1.94541208731140       -3.93788757808895        0.46227379879712
H           -3.25889299725168        0.50746729367004        0.37341856255749
H           -3.32438396611735       -0.30459885819925       -1.20516096817430
H           -5.36443891289196       -1.38651900790404       -1.43127638476049
H           -7.17809703529966       -2.76972195428196       -0.53501844486144
H           -7.10386816445703       -3.54904062682984        1.80323944469334
H           -5.20236259152188       -2.92206364325996        3.24196319488529
H           -3.38644335404563       -1.52235623286337        2.34843621518565
85
 energy: -126.293627658658 gnorm: 0.012908169395 xtb: 6.7.1 (edcfbbe)
C           -1.02849574720484        2.21390665282182       -0.69043226475613
N           -0.05547671464074        1.20660121908379       -0.27451381516730
C            0.90950317306542        0.78572553970486       -1.24533392464034
C            0.57396113709200        0.83633079668798       -2.61161325656731
C            1.47720423859232        0.46214488748602       -3.55872898642018
C            2.73651758795200       -0.05120329371964       -3.18852322075411
C            3.64713481762093       -0.50734124046000       -4.16285496868710
C            4.84475306707697       -1.04964236187567       -3.79703910238131
C            5.16634862321545       -1.16496798732361       -2.43543641705511
C            4.31382797387712       -0.71070122400852       -1.46765661843874
C            3.07846753358714       -0.12006274282241       -1.80951361981236
C            2.15629224609752        0.37295228592368       -0.83680579924163
C            2.55435676037597        0.45499462934597        0.58735567886151
C            1.84116382170854       -0.19871946012487        1.56794052062445
C            2.31028903162696       -0.24242822955944        2.89413264447534
C            3.46367967054004        0.39358976263280        3.24037057463078
C            4.17016413941293        1.16858457204727        2.29850914057807
C            5.31409536853187        1.90377857560402        2.67177312270270
C            5.95977027892698        2.69564501089668        1.76695260622067
C            5.47509422318825        2.78393921309471        0.45225431819075
C            4.38384898617847        2.06361736113766        0.05293278366870
C            3.70318425742041        1.21834327292310        0.95599562060994
N            0.62899461428969       -0.89326584087228        1.22423492249252
C            0.26218819997599       -2.04327354616790        2.05367599735024
P           -0.66015656864338        0.02997861662788        0.75217225536959
S           -1.65519351091975        0.97960756776850        2.35860063070437
S           -0.09810005933517        2.05328364452100        3.17436882167045
C           -0.23510334814123        3.63270523843020        2.33866027165998
C            0.83341188495757        4.04547709939200        1.55913458053056
C            0.74956153831647        5.25432969300144        0.89031124362989
C           -0.39089889478744        6.03346620746477        0.99877552223148
C           -1.44368116852324        5.61894038707630        1.79946381123978
C           -1.36876426420188        4.41789476204257        2.48264820260965
N           -1.79954234693051       -0.98321130159225        0.06827029224262
C           -1.27860528582003       -1.75889453477206       -1.07027902191017
C           -2.14397773345812       -2.94212108447710       -1.41964202290970
C           -2.68722517626103       -3.03569221728336       -2.69409006796845
C           -3.42644138484978       -4.14352075060122       -3.06683308509942
C           -3.63851403457841       -5.17022227926468       -2.16463308032271
C           -3.10935221333335       -5.08006056335581       -0.88862641452033
C           -2.36595157774215       -3.97480647315132       -0.51895089893700
C           -3.16119606574462       -0.46531641943512       -0.12995030426866
C           -4.23100878224513       -1.38659425589059        0.39425889811997
C           -5.30257626049364       -1.74210144085594       -0.41133505160863
C           -6.32892959002676       -2.51880069683809        0.09446292554534
C           -6.28891545730318       -2.95191458670253        1.40790139670542
C           -5.21888754178749       -2.60346245537254        2.21470252267220
C           -4.19711521306868       -1.82031925679199        1.71129328536803
H           -1.56359813123202        2.57988850324904        0.18622494627946
H           -0.49007831643945        3.04510607497259       -1.14073136395261
H           -1.76680919188574        1.83734103662357       -1.40392083371128
H           -0.39558071389973        1.19110912227111       -2.92064364989129
H            1.22840732982237        0.53497706384247       -4.60583270768467
H            3.36749721637075       -0.42746261570083       -5.20237841716242
H            5.53614077387375       -1.40001605434119       -4.54742480388308
H            6.10128315157198       -1.62447654854878       -2.15490767181776
H            4.58330837447773       -0.81984414627949       -0.42822907063032
H            1.76472829586860       -0.78419841647986        3.64798436003075
H            3.83581218997978        0.33220603414317        4.25061845910590
H            5.65687986400418        1.83470088912447        3.69288052523969
H            6.83082727388473        3.26068605351720        2.06022577223736
H            5.97475247554618        3.43488384324949       -0.24848773228247
H            4.02834676647894        2.15532931512171       -0.96214683826851
H            1.14062352237020       -2.67547142191798        2.16842290274890
H           -0.52236696041368       -2.60182992032501        1.54560426836989
H           -0.10426609933920       -1.75660523241000        3.04344085792388
H            1.71673692151488        3.42999733224420        1.48598399660711
H            1.57643748348658        5.58241359190096        0.28037696851572
H           -0.45788884390864        6.96788192888279        0.46413828169147
H           -2.32435024848033        6.23403798244375        1.89771781505409
H           -2.18177863718207        4.09251271886349        3.11390472148434
H           -0.26955440537263       -2.09549244839564       -0.80683443549893
H           -1.19717954106034       -1.11693648597694       -1.95786884686461
H           -2.51598110124445       -2.24671622191453       -3.41281546893408
H           -3.82867730201505       -4.20850051409854       -4.06586419923055
H           -4.20712702297906       -6.03884094678683       -2.45677345464072
H           -3.26276050234820       -5.88213689036283       -0.18418577660617
H           -1.95052278905212       -3.92175671798074        0.47607252470943
H           -3.24956828812519        0.49582881080047        0.39356390864330
H           -3.32643852031182       -0.29417245865726       -1.19909934418549
H           -5.34571002483065       -1.39887006167333       -1.43446719353283
H           -7.16502273314029       -2.77779298347746       -0.53606269886458
H           -7.09314613084893       -3.55145550347645        1.80426984786619
H           -5.19024775541184       -2.92892150517734        3.24290849901382
H           -3.37282961331466       -1.52459995966677        2.34596920288345
85
 energy: -126.295013997123 gnorm: 0.010509151058 xtb: 6.7.1 (edcfbbe)
C           -1.00839304815534        2.25690069314945       -0.68021892476976
N           -0.04514775809521        1.24143995927799       -0.26541817924788
C            0.90268623606323        0.79979478925924       -1.24679341795702
C            0.56738817301940        0.84482964470325       -2.61447033051084
C            1.47197266224294        0.45711509658302       -3.55716231090116
C            2.73050359946393       -0.05501804212355       -3.18033514222972
C            3.64937387287554       -0.51308283366586       -4.14694146575878
C            4.84713433669522       -1.04994134576070       -3.76888345918703
C            5.16555185963296       -1.15610874397834       -2.40549790404629
C            4.30540332099329       -0.69972475977740       -1.44578379532117
C            3.06858153171743       -0.11943760474585       -1.80267928218395
C            2.14473988759761        0.37631557872871       -0.83588563269664
C            2.53854568997596        0.45791122826432        0.58811034333495
C            1.82517306918000       -0.19612179125597        1.56614715733775
C            2.28966988462439       -0.23697763445583        2.89528057107493
C            3.44340352953704        0.40146457869752        3.24055057256878
C            4.15255423480576        1.17115797727189        2.29552109015852
C            5.30005156217378        1.90571162005727        2.66047223634105
C            5.94427087098833        2.69040726637812        1.74652964710114
C            5.45981746990391        2.77315149301302        0.43114223134353
C            4.36573521100780        2.05325361643763        0.04013065286882
C            3.68721887790384        1.21832856609793        0.95510051341099
N            0.61481918765967       -0.88684418012384        1.21448367017141
C            0.24724324156762       -2.04756302288576        2.02771805172473
P           -0.66256932229460        0.04334725450671        0.73303506000526
S           -1.65260093191445        0.97724976156770        2.33771009589696
S           -0.08432669594051        2.03021580416022        3.15656806113682
C           -0.22562778711904        3.60622282105647        2.31582264520657
C            0.84355258740271        4.02567410337165        1.54044505036168
C            0.75977548307097        5.24443505436238        0.88781835354809
C           -0.38145126918040        6.02175823681954        1.00769973225630
C           -1.43664214431781        5.59603654757582        1.80006827211193
C           -1.36214366185569        4.38514208136590        2.46757365545608
N           -1.79128981360025       -0.97905471845332        0.05633452618943
C           -1.26608952830127       -1.75849439692803       -1.07611525736867
C           -2.13709959673655       -2.93717208902775       -1.41565670035661
C           -2.68874252556601       -3.02859539781972       -2.68663529389275
C           -3.43648711912777       -4.13330016910753       -3.05245228899731
C           -3.64923388789957       -5.15558413758714       -2.14462055552248