95
 energy: -134.741668801503 gnorm: 0.000040692331 xtb: 6.7.1 (edcfbbe)
C            0.10119902826262        1.37791361846437       -2.11729469463843
N            0.20660645742099        0.56997513955638       -0.91385806752979
C            1.38477724523085       -0.22801865945963       -0.76139592694320
C            1.76934611028226       -1.14423768875803       -1.75630588575982
C            2.86104365683409       -1.94145706096115       -1.56597123012948
C            3.58333652194434       -1.89868370520447       -0.35431245754035
C            4.65807847202271       -2.77653649819657       -0.10396911531823
C            5.33925081764213       -2.72547653988886        1.08002497921615
C            4.97000013644708       -1.79816842237858        2.06599464947031
C            3.93938474468855       -0.92558705637985        1.84989419068557
C            3.22547949393420       -0.94310164428335        0.63332024060686
C            2.14259143881585       -0.05573959803394        0.37467948411559
C            1.87960443450604        1.08794951711366        1.26523316835783
C            0.66278492937108        1.26039739295982        1.88947348542290
C            0.49054385705519        2.29388052592974        2.83223434367032
C            1.50486243337856        3.16499144103116        3.10143787787970
C            2.72925686104866        3.08903121693922        2.40603588844475
C            3.75720595661434        4.03032490451178        2.61749377951298
C            4.92120610944448        3.96307239415813        1.90480872427974
C            5.09455264766184        2.95847950633474        0.94166037647251
C            4.12010593155005        2.02394451804529        0.72314091117541
C            2.91715025380652        2.04711338790670        1.46121256262993
N           -0.40002867530551        0.34355959805328        1.63451778350362
C           -1.31916491915487        0.09296338147764        2.73909285625381
P           -1.03515292942434        0.15697788040008        0.10828990332082
S           -2.61869860206629        1.50703953050246       -0.23776220163608
S           -1.92868265571986        3.14185217352843        0.80687866147077
C           -1.04026854704102        4.04970256689703       -0.44802643385774
C            0.27192645545272        4.41545643789492       -0.19606016252105
C            0.96573022763876        5.13283931220756       -1.15553914065851
C            0.35234748517617        5.47008914335190       -2.35126763520458
C           -0.96148422459045        5.09786642687300       -2.59041635837684
C           -1.66884974415596        4.39014788027432       -1.63521942219521
N           -1.63982475928342       -1.38122623858954        0.07092801660643
C           -0.74902111558105       -2.49866836833625        0.43325408240200
C           -1.30868822959142       -3.37754567983243        1.55401708893102
C           -0.25325483727813       -4.39844476465021        1.97850356900723
C            0.14740844062173       -5.27933158172826        0.80104248079726
C            0.65276970006982       -4.41854984606722       -0.35094667780169
C           -0.40287601102855       -3.39300913511689       -0.75849184495006
C           -2.99157305144134       -1.66934893275433       -0.43048673898869
C           -4.04422864681385       -1.48827273679633        0.66608366074151
C           -5.43962200415884       -1.58175998076407        0.06291320359934
C           -5.66200909872865       -0.39670844350477       -0.86687809331558
C           -4.55383508886281       -0.26420952616794       -1.86946953461765
C           -4.77035946942191        0.46637283077721       -3.03295401376147
C           -3.78649944166704        0.60110406315925       -3.99263775470644
C           -2.56181369678369       -0.02002589658206       -3.80975568941888
C           -2.32947445763587       -0.74044564321255       -2.65462902103627
C           -3.30203332671258       -0.84820838120927       -1.66201181532723
H           -0.90503866176493        1.78054929508444       -2.21418999560751
H            0.81144325266443        2.20555586324462       -2.05385888940856
H            0.32170897649850        0.79564950820301       -3.01156977716372
H            1.21264596109368       -1.19523452318503       -2.68021259411251
H            3.17233714907834       -2.63234126392127       -2.33454881313060
H            4.92560648034421       -3.49505842787797       -0.86435234789750
H            6.15966949186076       -3.40097706017544        1.26660724945323
H            5.50562282516017       -1.77916781138856        3.00264837295490
H            3.65476260165926       -0.22027722967196        2.61575521930310
H           -0.45038543886515        2.40816392530062        3.34304835321548
H            1.36765983149680        3.94427727576442        3.83558797352609
H            3.60007038316160        4.80975314282113        3.34815669692287
H            5.70594825360771        4.68520346846663        2.06894505420651
H            6.00686033238072        2.92832933872053        0.36568726478230
H            4.26483500809094        1.26736901653140       -0.03239011321413
H           -0.74016029273342       -0.14223528723375        3.63131820243062
H           -1.94914515762906       -0.75642512098618        2.48601867416044
H           -1.96869744991739        0.94710840707670        2.94715565156342
H            0.73772578074520        4.14807578403004        0.73908864573052
H            1.98729303517992        5.42369153652831       -0.96447244342600
H            0.89639294439806        6.02868090638001       -3.09690824185201
H           -1.44238200597993        5.36713389633209       -3.51787496032770
H           -2.69463717450701        4.09875482862229       -1.80862280315952
H            0.17689808054162       -2.03005932530398        0.79200222727654
H           -2.19488366348765       -3.90768507949079        1.20085208395289
H           -1.59126146148088       -2.77545585904555        2.41745452785510
H           -0.65083281811021       -5.01364209426206        2.78649810648131
H            0.62663399164309       -3.87326952100098        2.35735907394784
H            0.92449694075079       -5.97914046606817        1.10907092815732
H           -0.71504532524591       -5.86208272076839        0.47125929567340
H            1.56403861933658       -3.89815100524216       -0.04724272491940
H            0.89551776287475       -5.04704026577966       -1.20870657947860
H           -1.29359015994402       -3.92005924892924       -1.10554919024852
H           -0.02370377444662       -2.78913232016085       -1.58234614279777
H           -2.99076904698915       -2.72211377619537       -0.73389681536717
H           -3.91065398091013       -2.24984830336153        1.43498672522878
H           -3.92443990665592       -0.50706009126905        1.13021019872889
H           -5.53828996457965       -2.51497482507002       -0.49497636202486
H           -6.18906691626903       -1.58139685594986        0.85445364562282
H           -6.61407256071422       -0.49692798136555       -1.39024440712253
H           -5.71063112329194        0.52496324215480       -0.27807485518487
H           -5.73520109429557        0.92640124387222       -3.18542896593909
H           -3.97809826324707        1.16875408355046       -4.88987021735032
H           -1.79954891932407        0.04742531147931       -4.57118736321181
H           -1.38873785662966       -1.25636836994851       -2.52414962056422
