85
 energy: -124.022558671516 gnorm: 0.000023372721 xtb: 6.7.1 (edcfbbe)
C            8.36187367785217        3.28369103806408        0.29982186466677
O            8.04807158897499        1.91320681636087        0.17691847606745
C            6.76947428454177        1.54310381846656       -0.01476074402091
C            6.54872849091749        0.16699535209745       -0.13874548178129
C            5.28457520334659       -0.34133843834712       -0.34314542710976
C            5.06280857709594       -1.81569332742723       -0.45856452412128
C            4.21354690570428        0.55781206919278       -0.42423263140192
S            2.59260524247740       -0.06284276532749       -0.78054853831474
Se           1.70280187903370       -0.15141671053892        1.28172504541178
P           -0.22212192026654       -1.06509719924445        0.65118857023757
N           -0.36574929942398       -2.68748945666446        0.45565640839266
C           -1.18443211875979       -3.55503197826185        1.31408612067592
C           -0.88740536214965       -3.38094351910071        2.79960564259651
C           -2.66304991811244       -3.35451771999908        0.99852729785567
C            0.74504993688737       -3.28628015280784       -0.30191419667723
C            1.81396914800097       -3.88814448278911        0.60348059688289
C            0.22574283242115       -4.31293710272265       -1.30460416260445
O           -0.44788967430951       -0.29610206616232       -0.71479018677186
C           -1.77230942426749       -0.26048706759332       -1.22479508156663
C           -2.04280103135456       -0.91247149701070       -2.44258831923334
C           -0.94614709764175       -1.50139358095188       -3.27343399071042
C           -3.34296265659526       -0.91686506216369       -2.88314942013391
C           -4.38425924469889       -0.32024390789388       -2.14768564304389
C           -5.72638852271790       -0.39137061418231       -2.57837526241556
C           -6.72482053694153        0.19118148958541       -1.85019311375266
C           -6.42621475314571        0.86126460500461       -0.65368723970024
C           -5.13534751381268        0.95971183473961       -0.21415737475781
C           -4.07929145597389        0.38691478184322       -0.95440969265526
C           -2.72417846236461        0.44872226261322       -0.52710452224836
C           -2.33058891915671        1.28119121975994        0.62906701403490
C           -1.68248276312420        0.71807301987647        1.70089426374103
C           -1.35055273646415        1.42459251978930        2.87342912383662
C           -0.70557290911041        0.71589512369793        4.02134589974998
C           -1.66984237970053        2.75685291206037        2.91688960044755
C           -2.26791839630617        3.41430514572021        1.82297141748363
C           -2.54172161891914        4.79800665026554        1.86254776697865
C           -3.09368042147830        5.43253968075749        0.78551515405186
C           -3.38240213778343        4.71308948162937       -0.38386009571884
C           -3.14178032591571        3.36859670143719       -0.45169069502356
C           -2.59926146439775        2.67933675573955        0.65312865395895
O           -1.36449937472469       -0.66410885848024        1.64804975414106
C            4.40294305606175        1.93568814360793       -0.29962284122878
C            3.24420814966242        2.87880917963329       -0.36258884899719
C            5.68578570193446        2.41538825383287       -0.09080077125736
H            8.08860307679922        3.83821433943612       -0.60241433933685
H            7.87070359865349        3.72948474509817        1.16961549738318
H            9.44083372233735        3.32507256798314        0.43510361789946
H            7.40124918166910       -0.48943371579080       -0.07157226697611
H            4.43080670424926       -2.16259625838364        0.35932927835850
H            4.56437656724824       -2.05581329036745       -1.39608883183538
H            6.00817040279431       -2.34735340665596       -0.41612481215645
H           -0.91304239873592       -4.57356320236272        1.02728553622475
H           -1.37307798962382       -4.17543652784711        3.36046485819318
H            0.18229136831501       -3.43242027348659        2.98926142501706
H           -1.26447221941113       -2.43020930805558        3.16317009735728
H           -2.83815405895509       -3.44893311286982       -0.07066065712679
H           -3.00732092929689       -2.37606320443458        1.32072571725355
H           -3.25023531522802       -4.11007373026777        1.51344203414591
H            1.19436116642302       -2.45247717881952       -0.86066352553756
H            2.18007953280246       -3.14953622132510        1.31537600338754
H            1.42559129849522       -4.73978445260351        1.15577483538399
H            2.64934320463478       -4.22865594331322       -0.00222228221403
H           -0.01267798252492       -5.25546811317464       -0.81928197366607
H           -0.66591691798874       -3.94353152731930       -1.80207802400819
H            0.98897273200772       -4.50575081224643       -2.05323356974575
H           -0.03986003707262       -1.65342156116572       -2.69567109974290
H           -1.26015793540821       -2.44271028081325       -3.71818180740948
H           -0.70930932559432       -0.81498118658904       -4.08652520886143
H           -3.58092260535945       -1.39849495954409       -3.81989035084141
H           -5.94732372295561       -0.92145099368953       -3.49254735636596
H           -7.74908013645327        0.13295775875812       -2.18437291820927
H           -7.22660933110294        1.29851438324999       -0.07702630430707
H           -4.91597921945458        1.46714746385064        0.71262573614094
H           -1.37723235717744       -0.04267896317501        4.42237167217802
H            0.21378809244767        0.21428919156106        3.70735959953850
H           -0.46256330769996        1.41848692194351        4.81252196151692
H           -1.44589076109228        3.32967848359344        3.80402867840998
H           -2.29882265815844        5.34605329164111        2.76042237116459
H           -3.30051278095224        6.49087784847229        0.82285335059689
H           -3.79536850570567        5.22993498908584       -1.23634433640637
H           -3.35691047703475        2.82613674323702       -1.35906032104406
H            2.58229874802753        2.71954454520309        0.49252259435805
H            2.66254636581661        2.71460595871133       -1.26824363602959
H            3.58343254617723        3.91016653176919       -0.34474999340458
H            5.82748442849647        3.47948111251963        0.00872188434569
