      -----------------------------------------------------------      
     |                   =====================                   |     
     |                           x T B                           |     
     |                   =====================                   |     
     |                         S. Grimme                         |     
     |          Mulliken Center for Theoretical Chemistry        |     
     |                    University of Bonn                     |     
      -----------------------------------------------------------      

   * xtb version 6.7.1 (edcfbbe) compiled by 'conda@3ef47c1a292c' on 2024-11-25

   xtb is free software: you can redistribute it and/or modify it under
   the terms of the GNU Lesser General Public License as published by
   the Free Software Foundation, either version 3 of the License, or
   (at your option) any later version.
   
   xtb is distributed in the hope that it will be useful,
   but WITHOUT ANY WARRANTY; without even the implied warranty of
   MERCHANTABILITY or FITNESS FOR A PARTICULAR PURPOSE.  See the
   GNU Lesser General Public License for more details.
   
   Cite this work as:
   * C. Bannwarth, E. Caldeweyher, S. Ehlert, A. Hansen, P. Pracht,
     J. Seibert, S. Spicher, S. Grimme, WIREs Comput. Mol. Sci., 2020, 11,
     e01493. DOI: 10.1002/wcms.1493
   
   for GFN2-xTB:
   * C. Bannwarth, S. Ehlert and S. Grimme., J. Chem. Theory Comput., 2019,
     15, 1652-1671. DOI: 10.1021/acs.jctc.8b01176
   for GFN1-xTB:
   * S. Grimme, C. Bannwarth, P. Shushkov, J. Chem. Theory Comput., 2017,
     13, 1989-2009. DOI: 10.1021/acs.jctc.7b00118
   for GFN0-xTB:
   * P. Pracht, E. Caldeweyher, S. Ehlert, S. Grimme, ChemRxiv, 2019, preprint.
     DOI: 10.26434/chemrxiv.8326202.v1
   for GFN-FF:
   * S. Spicher and S. Grimme, Angew. Chem. Int. Ed., 2020, 59, 15665-15673.
     DOI: 10.1002/anie.202004239
   
   for ALPB and GBSA implicit solvation:
   * S. Ehlert, M. Stahn, S. Spicher, S. Grimme, J. Chem. Theory Comput.,
     2021, 17, 4250-4261. DOI: 10.1021/acs.jctc.1c00471
   
   for ddCOSMO and CPCM-X implicit solvation:
   * M. Stahn, S. Ehlert, S. Grimme, J. Phys. Chem. A,
     2023, XX, XXXX-XXXX. DOI: 10.1021/acs.jpca.3c04382
   
   for DFT-D4:
   * E. Caldeweyher, C. Bannwarth and S. Grimme, J. Chem. Phys., 2017,
     147, 034112. DOI: 10.1063/1.4993215
   * E. Caldeweyher, S. Ehlert, A. Hansen, H. Neugebauer, S. Spicher,
     C. Bannwarth and S. Grimme, J. Chem. Phys., 2019, 150, 154122.
     DOI: 10.1063/1.5090222
   * E. Caldeweyher, J.-M. Mewes, S. Ehlert and S. Grimme, Phys. Chem. Chem. Phys.
     2020, 22, 8499-8512. DOI: 10.1039/D0CP00502A
   
   for sTDA-xTB:
   * S. Grimme and C. Bannwarth, J. Chem. Phys., 2016, 145, 054103.
     DOI: 10.1063/1.4959605
   
   in the mass-spec context:
   * V. Asgeirsson, C. Bauer and S. Grimme, Chem. Sci., 2017, 8, 4879.
     DOI: 10.1039/c7sc00601b
   * J. Koopman and S. Grimme, ACS Omega 2019, 4, 12, 15120-15133.
     DOI: 10.1021/acsomega.9b02011
   
   for metadynamics refer to:
   * S. Grimme, J. Chem. Theory Comput., 2019, 155, 2847-2862
     DOI: 10.1021/acs.jctc.9b00143
   
   for SPH calculations refer to:
   * S. Spicher and S. Grimme, J. Chem. Theory Comput., 2021, 17, 1701-1714
     DOI: 10.1021/acs.jctc.0c01306
   
   for ONIOM refer to:
   * C. Plett, A. Katbashev, S. Ehlert, S. Grimme, M. Bursch,
     Phys. Chem. Chem. Phys., 2023, 25, 17860-17868. DOI: 10.1039/D3CP02178E
   
   for DIPRO refer to:
   * J. Kohn, N. Gildemeister, S. Grimme, D. Fazzi, A. Hansen,
     J. Chem. Phys., 2023, just accepted.
   
   for PTB refer to:
   * S. Grimme, M. Mueller, A. Hansen, J. Chem. Phys., 2023, 158, 124111.
     DOI: 10.1063/5.0137838
   
   with help from (in alphabetical order)
   P. Atkinson, C. Bannwarth, F. Bohle, G. Brandenburg, E. Caldeweyher
   M. Checinski, S. Dohm, S. Ehlert, S. Ehrlich, I. Gerasimov, C. Hölzer
   A. Katbashev, J. Kohn, J. Koopman, C. Lavigne, S. Lehtola, F. März, M. Müller,
   F. Musil, H. Neugebauer, J. Pisarek, C. Plett, P. Pracht, F. Pultar,
   J. Seibert, P. Shushkov, S. Spicher, M. Stahn, M. Steiner, T. Strunk,
   J. Stückrath, T. Rose, and J. Unsleber
   
 * started run on 2024/12/16 at 21:09:59.277     
   ID    Z sym.   atoms
    1    6 C      1-3, 5-7, 11-13, 15, 16, 18, 20-36
    2    7 N      4
    3   15 P      8
    4   16 S      9, 10
    5   17 Cl     14, 17
    6    8 O      19, 37
    7    1 H      38-68

           -------------------------------------------------
          |                Calculation Setup                |
           -------------------------------------------------

          program call               : xtb --gfn2 --opt extreme -P 8 --charge 1 molecule.xyz
          hostname                   : node20
          coordinate file            : molecule.xyz
          omp threads                :                     8


           -------------------------------------------------
          |                 G F N 2 - x T B                 |
           -------------------------------------------------

        Reference                      10.1021/acs.jctc.8b01176
      * Hamiltonian:
        H0-scaling (s, p, d)           1.850000    2.230000    2.230000
        zeta-weighting                 0.500000
      * Dispersion:
        s8                             2.700000
        a1                             0.520000
        a2                             5.000000
        s9                             5.000000
      * Repulsion:
        kExp                           1.500000    1.000000
        rExp                           1.000000
      * Coulomb:
        alpha                          2.000000
        third order                    shell-resolved
        anisotropic                    true
        a3                             3.000000
        a5                             4.000000
        cn-shift                       1.200000
        cn-exp                         4.000000
        max-rad                        5.000000


          ...................................................
          :                      SETUP                      :
          :.................................................:
          :  # basis functions                 209          :
          :  # atomic orbitals                 204          :
          :  # shells                          110          :
          :  # electrons                       194          :
          :  max. iterations                   250          :
          :  Hamiltonian                  GFN2-xTB          :
          :  restarted?                      false          :
          :  GBSA solvation                  false          :
          :  PC potential                    false          :
          :  electronic temp.          300.0000000     K    :
          :  accuracy                    1.0000000          :
          :  -> integral cutoff          0.2500000E+02      :
          :  -> integral neglect         0.1000000E-07      :
          :  -> SCF convergence          0.1000000E-05 Eh   :
          :  -> wf. convergence          0.1000000E-03 e    :
          :  Broyden damping             0.4000000          :
          :  net charge                          1          :
          :  unpaired electrons                  0          :
          ...................................................

 iter      E             dE          RMSdq      gap      omega  full diag
   1   -108.0730524 -0.108073E+03  0.462E+00    2.62       0.0  T
   2   -108.2164792 -0.143427E+00  0.272E+00    2.77       1.0  T
   3   -108.2202206 -0.374139E-02  0.126E+00    2.53       1.0  T
   4   -108.2429681 -0.227475E-01  0.503E-01    2.27       1.0  T
   5   -108.2465917 -0.362358E-02  0.201E-01    2.31       1.0  T
   6   -108.2471518 -0.560100E-03  0.806E-02    2.33       1.0  T
   7   -108.2471981 -0.463638E-04  0.439E-02    2.34       1.0  T
   8   -108.2472289 -0.307638E-04  0.286E-02    2.34       1.0  T
   9   -108.2472415 -0.125941E-04  0.204E-02    2.34       1.0  T
  10   -108.2472504 -0.889912E-05  0.124E-02    2.34       1.0  T
  11   -108.2472534 -0.300856E-05  0.806E-03    2.34       1.5  T
  12   -108.2472551 -0.168726E-05  0.396E-03    2.34       3.1  T
  13   -108.2472556 -0.489473E-06  0.171E-03    2.34       7.1  T
  14   -108.2472556 -0.491634E-07  0.966E-04    2.34      12.6  T
  15   -108.2472557 -0.180345E-07  0.538E-04    2.34      22.5  T

   *** convergence criteria satisfied after 15 iterations ***

         #    Occupation            Energy/Eh            Energy/eV
      -------------------------------------------------------------
         1        2.0000           -1.1526656             -31.3656
       ...           ...                  ...                  ...
        91        2.0000           -0.5154491             -14.0261
        92        2.0000           -0.5121600             -13.9366
        93        2.0000           -0.5096258             -13.8676
        94        2.0000           -0.5044158             -13.7259
        95        2.0000           -0.5025347             -13.6747
        96        2.0000           -0.5005294             -13.6201
        97        2.0000           -0.4936924             -13.4341 (HOMO)
        98                         -0.4077285             -11.0949 (LUMO)
        99                         -0.3743893             -10.1877
       100                         -0.3566242              -9.7042
       101                         -0.3527167              -9.5979
       102                         -0.3456373              -9.4053
       ...                                ...                  ...
       204                          1.0060256              27.3753
      -------------------------------------------------------------
                  HL-Gap            0.0859639 Eh            2.3392 eV
             Fermi-level           -0.4507105 Eh          -12.2645 eV

 SCC (total)                   0 d,  0 h,  0 min,  2.326 sec
 SCC setup                      ...        0 min,  0.000 sec (  0.014%)
 Dispersion                     ...        0 min,  0.001 sec (  0.048%)
 classical contributions        ...        0 min,  0.000 sec (  0.004%)
 integral evaluation            ...        0 min,  0.011 sec (  0.459%)
 iterations                     ...        0 min,  2.195 sec ( 94.397%)
 molecular gradient             ...        0 min,  0.113 sec (  4.871%)
 printout                       ...        0 min,  0.005 sec (  0.206%)

         :::::::::::::::::::::::::::::::::::::::::::::::::::::
         ::                     SUMMARY                     ::
         :::::::::::::::::::::::::::::::::::::::::::::::::::::
         :: total energy            -106.867653110593 Eh    ::
         :: gradient norm              0.112858543008 Eh/a0 ::
         :: HOMO-LUMO gap              2.339196591257 eV    ::
         ::.................................................::
         :: SCC energy              -108.241277515568 Eh    ::
         :: -> isotropic ES            0.113727983789 Eh    ::
         :: -> anisotropic ES         -0.006167262298 Eh    ::
         :: -> anisotropic XC          0.049751158346 Eh    ::
         :: -> dispersion             -0.107354526791 Eh    ::
         :: repulsion energy           1.373624404976 Eh    ::
         :: add. restraining           0.000000000000 Eh    ::
         :: total charge               1.000000000000 e     ::
         :::::::::::::::::::::::::::::::::::::::::::::::::::::

      ----------------------------------------------------------- 
     |                   =====================                   |
     |                        A N C O P T                        |
     |                   =====================                   |
     |               Approximate Normal Coordinate               |
     |                Rational Function Optimizer                |
      ----------------------------------------------------------- 
      ----------------------------------------------------------- 
     |                   =====================                   |
     |                        A N C O P T                        |
     |                   =====================                   |
     |               Approximate Normal Coordinate               |
     |                Rational Function Optimizer                |
      ----------------------------------------------------------- 

          ...................................................
          :                      SETUP                      :
          :.................................................:
          :   optimization level           extreme          :
          :   max. optcycles                  1360          :
          :   ANC micro-cycles                  20          :
          :   degrees of freedom               198          :
          :.................................................:
          :   RF solver                   davidson          :
          :   write xtbopt.log                true          :
          :   linear?                        false          :
          :   energy convergence         0.5000000E-07 Eh   :
          :   grad. convergence          0.5000000E-04 Eh/α :
          :   maxmium RF displ.          1.0000000          :
          :   Hlow (freq-cutoff)         0.1000000E-01      :
          :   Hmax (freq-cutoff)         5.0000000          :
          :   S6 in model hess.         20.0000000          :
          ...................................................

generating ANC from exact Hessian ...
Using Lindh-Hessian (1995)
 Shifting diagonal of input Hessian by    9.8883815312045126E-003
 Lowest  eigenvalues of input Hessian
    0.000000    0.000000    0.000000    0.000000    0.000000    0.000000
    0.010000    0.010254    0.010295    0.010444    0.010494    0.010787
    0.011021    0.011131    0.011614    0.011667    0.011716    0.012298
 Highest eigenvalues
    1.948111    1.971491    2.001704    2.019978    2.117158    2.121778


........................................................................
.............................. CYCLE    1 ..............................
........................................................................

 iter      E             dE          RMSdq      gap      omega  full diag
   1   -108.2472557 -0.108247E+03  0.299E-04    2.34       0.0  T
   2   -108.2472557 -0.882352E-09  0.234E-04    2.34      51.8  T
   3   -108.2472557 -0.619480E-09  0.191E-04    2.34      63.6  T
     SCC iter.                  ...        0 min,  0.275 sec
     gradient                   ...        0 min,  0.109 sec
 * total energy  :  -106.8676531 Eh     change       -0.5209515E-08 Eh
   gradient norm :     0.1128563 Eh/α   predicted     0.0000000E+00 (-100.00%)
   displ. norm   :     0.3854451 α      lambda       -0.2085819E-01
   maximum displ.:     0.2003257 α      in ANC's #32, #73, #37, ...

........................................................................
.............................. CYCLE    2 ..............................
........................................................................

 iter      E             dE          RMSdq      gap      omega  full diag
   1   -108.2983008 -0.108298E+03  0.271E-01    2.50       0.0  T
   2   -108.2986425 -0.341716E-03  0.162E-01    2.55       1.0  T
   3   -108.2985711  0.713559E-04  0.775E-02    2.56       1.0  T
   4   -108.2987706 -0.199513E-03  0.259E-02    2.57       1.0  T
   5   -108.2987839 -0.132248E-04  0.124E-02    2.57       1.0  T
   6   -108.2987859 -0.204473E-05  0.692E-03    2.57       1.8  T
   7   -108.2987870 -0.106849E-05  0.433E-03    2.57       2.8  T
   8   -108.2987872 -0.225996E-06  0.250E-03    2.57       4.9  T
   9   -108.2987873 -0.534299E-07  0.123E-03    2.57       9.9  T
  10   -108.2987873 -0.316388E-07  0.655E-04    2.57      18.5  T
  11   -108.2987873 -0.467872E-08  0.377E-04    2.57      32.1  T
     SCC iter.                  ...        0 min,  1.688 sec
     gradient                   ...        0 min,  0.113 sec
 * total energy  :  -106.8817500 Eh     change       -0.1409692E-01 Eh
   gradient norm :     0.0585085 Eh/α   predicted    -0.1199341E-01 ( -14.92%)
   displ. norm   :     0.3705382 α      lambda       -0.7824031E-02
   maximum displ.:     0.1124122 α      in ANC's #30, #15, #34, ...

........................................................................
.............................. CYCLE    3 ..............................
........................................................................

 iter      E             dE          RMSdq      gap      omega  full diag
   1   -108.3310607 -0.108331E+03  0.169E-01    2.69       0.0  T
   2   -108.3311814 -0.120658E-03  0.950E-02    2.74       1.0  T
   3   -108.3311539  0.275339E-04  0.480E-02    2.76       1.0  T
   4   -108.3312324 -0.785382E-04  0.165E-02    2.77       1.0  T
   5   -108.3312361 -0.374003E-05  0.681E-03    2.77       1.8  T
   6   -108.3312368 -0.701340E-06  0.362E-03    2.77       3.4  T
   7   -108.3312372 -0.317113E-06  0.205E-03    2.77       5.9  T
   8   -108.3312372 -0.678319E-07  0.115E-03    2.77      10.5  T
   9   -108.3312373 -0.176918E-07  0.668E-04    2.77      18.2  T
  10   -108.3312373 -0.849180E-08  0.417E-04    2.77      29.1  T
     SCC iter.                  ...        0 min,  1.490 sec
     gradient                   ...        0 min,  0.113 sec
 * total energy  :  -106.8862922 Eh     change       -0.4542180E-02 Eh
   gradient norm :     0.0278176 Eh/α   predicted    -0.4449191E-02 (  -2.05%)
   displ. norm   :     0.3253165 α      lambda       -0.2596589E-02
   maximum displ.:     0.1325541 α      in ANC's #15, #32, #14, ...

........................................................................
.............................. CYCLE    4 ..............................
........................................................................

 iter      E             dE          RMSdq      gap      omega  full diag
   1   -108.3357403 -0.108336E+03  0.138E-01    2.78       0.0  T
   2   -108.3357813 -0.410193E-04  0.752E-02    2.79       1.0  T
   3   -108.3357748  0.649910E-05  0.249E-02    2.79       1.0  T
   4   -108.3357860 -0.112026E-04  0.103E-02    2.79       1.2  T
   5   -108.3357889 -0.289649E-05  0.514E-03    2.79       2.4  T
   6   -108.3357892 -0.277876E-06  0.274E-03    2.79       4.4  T
   7   -108.3357892 -0.669463E-07  0.166E-03    2.79       7.3  T
   8   -108.3357893 -0.298534E-07  0.836E-04    2.79      14.5  T
   9   -108.3357893 -0.958150E-08  0.407E-04    2.79      29.8  T
     SCC iter.                  ...        0 min,  1.252 sec
     gradient                   ...        0 min,  0.115 sec
 * total energy  :  -106.8878923 Eh     change       -0.1600113E-02 Eh
   gradient norm :     0.0144001 Eh/α   predicted    -0.1435706E-02 ( -10.27%)
   displ. norm   :     0.3378776 α      lambda       -0.1381886E-02
   maximum displ.:     0.1524504 α      in ANC's #15, #14, #6, ...

........................................................................
.............................. CYCLE    5 ..............................
........................................................................

 iter      E             dE          RMSdq      gap      omega  full diag
   1   -108.3341739 -0.108334E+03  0.835E-02    2.79       0.0  T
   2   -108.3341896 -0.157435E-04  0.434E-02    2.78       1.0  T
   3   -108.3341880  0.162799E-05  0.137E-02    2.78       1.0  T
   4   -108.3341901 -0.213250E-05  0.821E-03    2.78       1.5  T
   5   -108.3341924 -0.227927E-05  0.272E-03    2.78       4.5  T
   6   -108.3341926 -0.249419E-06  0.129E-03    2.78       9.4  T
   7   -108.3341927 -0.242549E-07  0.773E-04    2.78      15.7  T
   8   -108.3341927 -0.830140E-08  0.463E-04    2.78      26.2  T
     SCC iter.                  ...        0 min,  1.042 sec
     gradient                   ...        0 min,  0.114 sec
 * total energy  :  -106.8888610 Eh     change       -0.9686406E-03 Eh
   gradient norm :     0.0087313 Eh/α   predicted    -0.7698304E-03 ( -20.52%)
   displ. norm   :     0.3499173 α      lambda       -0.7802489E-03
   maximum displ.:     0.1700975 α      in ANC's #15, #6, #2, ...

........................................................................
.............................. CYCLE    6 ..............................
........................................................................

 iter      E             dE          RMSdq      gap      omega  full diag
   1   -108.3322670 -0.108332E+03  0.672E-02    2.78       0.0  T
   2   -108.3322753 -0.830995E-05  0.364E-02    2.78       1.0  T
   3   -108.3322712  0.414904E-05  0.126E-02    2.78       1.0  T
   4   -108.3322768 -0.568453E-05  0.594E-03    2.78       2.0  T
   5   -108.3322777 -0.877882E-06  0.211E-03    2.78       5.8  T
   6   -108.3322779 -0.155195E-06  0.117E-03    2.78      10.4  T
   7   -108.3322779 -0.249260E-07  0.784E-04    2.78      15.5  T
   8   -108.3322779 -0.804005E-08  0.451E-04    2.78      26.9  T
     SCC iter.                  ...        0 min,  0.909 sec
     gradient                   ...        0 min,  0.115 sec
 * total energy  :  -106.8894258 Eh     change       -0.5647962E-03 Eh
   gradient norm :     0.0094909 Eh/α   predicted    -0.4379012E-03 ( -22.47%)
   displ. norm   :     0.3735889 α      lambda       -0.5573833E-03
   maximum displ.:     0.1665021 α      in ANC's #15, #6, #2, ...

........................................................................
.............................. CYCLE    7 ..............................
........................................................................

 iter      E             dE          RMSdq      gap      omega  full diag
   1   -108.3316659 -0.108332E+03  0.629E-02    2.77       0.0  T
   2   -108.3316719 -0.602997E-05  0.323E-02    2.77       1.0  T
   3   -108.3316693  0.263650E-05  0.108E-02    2.77       1.1  T
   4   -108.3316728 -0.356885E-05  0.551E-03    2.77       2.2  T
   5   -108.3316736 -0.762107E-06  0.147E-03    2.77       8.3  T
   6   -108.3316736 -0.423924E-07  0.860E-04    2.77      14.1  T
   7   -108.3316736 -0.133624E-07  0.596E-04    2.77      20.3  T
     SCC iter.                  ...        0 min,  0.868 sec
     gradient                   ...        0 min,  0.110 sec
 * total energy  :  -106.8898489 Eh     change       -0.4231824E-03 Eh
   gradient norm :     0.0091757 Eh/α   predicted    -0.3175886E-03 ( -24.95%)
   displ. norm   :     0.3815718 α      lambda       -0.4693665E-03
   maximum displ.:     0.1783312 α      in ANC's #6, #15, #2, ...

........................................................................
.............................. CYCLE    8 ..............................
........................................................................

 iter      E             dE          RMSdq      gap      omega  full diag
   1   -108.3326686 -0.108333E+03  0.605E-02    2.77       0.0  T
   2   -108.3326739 -0.523277E-05  0.319E-02    2.77       1.0  T
   3   -108.3326706  0.330100E-05  0.106E-02    2.77       1.1  T
   4   -108.3326748 -0.422648E-05  0.494E-03    2.77       2.5  T
   5   -108.3326755 -0.685415E-06  0.156E-03    2.77       7.8  T
   6   -108.3326755 -0.366187E-07  0.888E-04    2.77      13.7  T
   7   -108.3326755 -0.891890E-08  0.654E-04    2.77      18.5  T
     SCC iter.                  ...        0 min,  0.789 sec
     gradient                   ...        0 min,  0.117 sec
 * total energy  :  -106.8902002 Eh     change       -0.3512612E-03 Eh
   gradient norm :     0.0063663 Eh/α   predicted    -0.2688526E-03 ( -23.46%)
   displ. norm   :     0.3241927 α      lambda       -0.3132572E-03
   maximum displ.:     0.1664186 α      in ANC's #6, #3, #2, ...

........................................................................
.............................. CYCLE    9 ..............................
........................................................................

 iter      E             dE          RMSdq      gap      omega  full diag
   1   -108.3343325 -0.108334E+03  0.518E-02    2.77       0.0  T
   2   -108.3343372 -0.470988E-05  0.267E-02    2.77       1.0  T
   3   -108.3343358  0.141278E-05  0.904E-03    2.77       1.3  T
   4   -108.3343377 -0.190301E-05  0.449E-03    2.77       2.7  T
   5   -108.3343383 -0.606297E-06  0.166E-03    2.77       7.3  T
   6   -108.3343383 -0.714636E-07  0.775E-04    2.77      15.6  T
   7   -108.3343383 -0.718828E-08  0.601E-04    2.77      20.2  T
     SCC iter.                  ...        0 min,  0.791 sec
     gradient                   ...        0 min,  0.112 sec
 * total energy  :  -106.8904235 Eh     change       -0.2233445E-03 Eh
   gradient norm :     0.0039990 Eh/α   predicted    -0.1731070E-03 ( -22.49%)
   displ. norm   :     0.2271589 α      lambda       -0.1657709E-03
   maximum displ.:     0.1213911 α      in ANC's #6, #3, #2, ...

........................................................................
.............................. CYCLE   10 ..............................
........................................................................

 iter      E             dE          RMSdq      gap      omega  full diag
   1   -108.3356613 -0.108336E+03  0.393E-02    2.77       0.0  T
   2   -108.3356631 -0.179822E-05  0.196E-02    2.77       1.0  T
   3   -108.3356628  0.245895E-06  0.548E-03    2.77       2.2  T
   4   -108.3356632 -0.413880E-06  0.302E-03    2.77       4.0  T
   5   -108.3356635 -0.250992E-06  0.106E-03    2.77      11.5  T
   6   -108.3356635 -0.250899E-07  0.620E-04    2.77      19.6  T
   7   -108.3356635 -0.484461E-08  0.484E-04    2.77      25.1  T
     SCC iter.                  ...        0 min,  0.865 sec
     gradient                   ...        0 min,  0.113 sec
 * total energy  :  -106.8905446 Eh     change       -0.1210823E-03 Eh
   gradient norm :     0.0036605 Eh/α   predicted    -0.8716271E-04 ( -28.01%)
   displ. norm   :     0.1904756 α      lambda       -0.1196434E-03
   maximum displ.:     0.0963383 α      in ANC's #6, #3, #2, ...

........................................................................
.............................. CYCLE   11 ..............................
........................................................................

 iter      E             dE          RMSdq      gap      omega  full diag
   1   -108.3362767 -0.108336E+03  0.297E-02    2.77       0.0  T
   2   -108.3362777 -0.103959E-05  0.146E-02    2.77       1.0  T
   3   -108.3362777  0.649338E-07  0.420E-03    2.77       2.9  T
   4   -108.3362779 -0.198598E-06  0.227E-03    2.77       5.3  T
   5   -108.3362780 -0.901085E-07  0.702E-04    2.77      17.3  T
   6   -108.3362780 -0.764375E-08  0.428E-04    2.77      28.4  T
     SCC iter.                  ...        0 min,  0.581 sec
     gradient                   ...        0 min,  0.109 sec
 * total energy  :  -106.8906330 Eh     change       -0.8837706E-04 Eh
   gradient norm :     0.0035540 Eh/α   predicted    -0.6199278E-04 ( -29.85%)
   displ. norm   :     0.1778076 α      lambda       -0.9169459E-04
   maximum displ.:     0.0796266 α      in ANC's #3, #6, #2, ...

........................................................................
.............................. CYCLE   12 ..............................
........................................................................

 iter      E             dE          RMSdq      gap      omega  full diag
   1   -108.3361531 -0.108336E+03  0.345E-02    2.77       0.0  T
   2   -108.3361543 -0.119583E-05  0.163E-02    2.77       1.0  T
   3   -108.3361543  0.519511E-07  0.431E-03    2.77       2.8  T
   4   -108.3361544 -0.180997E-06  0.255E-03    2.77       4.8  T
   5   -108.3361546 -0.130384E-06  0.647E-04    2.77      18.7  T
   6   -108.3361546 -0.837800E-08  0.422E-04    2.77      28.7  T
     SCC iter.                  ...        0 min,  0.876 sec
     gradient                   ...        0 min,  0.111 sec
 * total energy  :  -106.8906971 Eh     change       -0.6404925E-04 Eh
   gradient norm :     0.0028803 Eh/α   predicted    -0.4729793E-04 ( -26.15%)
   displ. norm   :     0.1206511 α      lambda       -0.4808178E-04
   maximum displ.:     0.0529901 α      in ANC's #3, #2, #15, ...

........................................................................
.............................. CYCLE   13 ..............................
........................................................................

 iter      E             dE          RMSdq      gap      omega  full diag
   1   -108.3357027 -0.108336E+03  0.243E-02    2.77       0.0  T
   2   -108.3357032 -0.548536E-06  0.122E-02    2.77       1.0  T
   3   -108.3357032  0.359879E-07  0.317E-03    2.77       3.8  T
   4   -108.3357033 -0.614393E-07  0.181E-03    2.77       6.7  T
   5   -108.3357034 -0.894073E-07  0.503E-04    2.77      24.1  T
   6   -108.3357034 -0.510208E-08  0.316E-04    2.77      38.4  T
     SCC iter.                  ...        0 min,  0.682 sec
     gradient                   ...        0 min,  0.110 sec
 * total energy  :  -106.8907311 Eh     change       -0.3408984E-04 Eh
   gradient norm :     0.0019337 Eh/α   predicted    -0.2439282E-04 ( -28.45%)
   displ. norm   :     0.1397614 α      lambda       -0.2957023E-04
   maximum displ.:     0.0588373 α      in ANC's #2, #3, #15, ...

........................................................................
.............................. CYCLE   14 ..............................
........................................................................

 iter      E             dE          RMSdq      gap      omega  full diag
   1   -108.3351597 -0.108335E+03  0.337E-02    2.78       0.0  T
   2   -108.3351606 -0.934732E-06  0.169E-02    2.78       1.0  T
   3   -108.3351607 -0.353922E-07  0.411E-03    2.78       2.9  T
   4   -108.3351607 -0.404916E-08  0.215E-03    2.78       5.6  T
   5   -108.3351608 -0.134312E-06  0.610E-04    2.78      19.9  T
   6   -108.3351608 -0.109150E-07  0.359E-04    2.78      33.7  T
     SCC iter.                  ...        0 min,  0.770 sec
     gradient                   ...        0 min,  0.112 sec
 * total energy  :  -106.8907554 Eh     change       -0.2428096E-04 Eh
   gradient norm :     0.0016541 Eh/α   predicted    -0.1491741E-04 ( -38.56%)
   displ. norm   :     0.0534454 α      lambda       -0.1169874E-04
   maximum displ.:     0.0248715 α      in ANC's #2, #9, #3, ...

........................................................................
.............................. CYCLE   15 ..............................
........................................................................

 iter      E             dE          RMSdq      gap      omega  full diag
   1   -108.3352857 -0.108335E+03  0.106E-02    2.78       0.0  T
   2   -108.3352859 -0.117340E-06  0.577E-03    2.78       2.1  T
   3   -108.3352857  0.124141E-06  0.182E-03    2.78       6.7  T
   4   -108.3352859 -0.148385E-06  0.812E-04    2.78      14.9  T
   5   -108.3352859 -0.177847E-07  0.256E-04    2.78      47.3  T
     SCC iter.                  ...        0 min,  0.621 sec
     gradient                   ...        0 min,  0.120 sec
 * total energy  :  -106.8907696 Eh     change       -0.1418808E-04 Eh
   gradient norm :     0.0011773 Eh/α   predicted    -0.5859750E-05 ( -58.70%)
   displ. norm   :     0.1224666 α      lambda       -0.1950707E-04
   maximum displ.:     0.0590225 α      in ANC's #2, #9, #3, ...

........................................................................
.............................. CYCLE   16 ..............................
........................................................................

 iter      E             dE          RMSdq      gap      omega  full diag
   1   -108.3354793 -0.108335E+03  0.242E-02    2.77       0.0  T
   2   -108.3354798 -0.468330E-06  0.126E-02    2.77       1.0  T
   3   -108.3354796  0.219184E-06  0.330E-03    2.77       3.7  T
   4   -108.3354798 -0.249260E-06  0.177E-03    2.77       6.8  T
   5   -108.3354799 -0.995608E-07  0.444E-04    2.77      27.3  T
   6   -108.3354799 -0.438938E-08  0.262E-04    2.77      46.3  T
     SCC iter.                  ...        0 min,  0.787 sec
     gradient                   ...        0 min,  0.114 sec
 * total energy  :  -106.8907890 Eh     change       -0.1941449E-04 Eh
   gradient norm :     0.0012359 Eh/α   predicted    -0.9822436E-05 ( -49.41%)
   displ. norm   :     0.1072308 α      lambda       -0.1006788E-04
   maximum displ.:     0.0567810 α      in ANC's #2, #3, #4, ...

........................................................................
.............................. CYCLE   17 ..............................
........................................................................

 iter      E             dE          RMSdq      gap      omega  full diag
   1   -108.3355404 -0.108336E+03  0.205E-02    2.77       0.0  T
   2   -108.3355408 -0.396396E-06  0.976E-03    2.77       1.2  T
   3   -108.3355408  0.401188E-07  0.265E-03    2.77       4.6  T
   4   -108.3355408 -0.392641E-07  0.152E-03    2.77       8.0  T
   5   -108.3355409 -0.869115E-07  0.410E-04    2.77      29.6  T
   6   -108.3355409 -0.423898E-08  0.248E-04    2.77      48.8  T
     SCC iter.                  ...        0 min,  0.604 sec
     gradient                   ...        0 min,  0.130 sec
 * total energy  :  -106.8907995 Eh     change       -0.1047116E-04 Eh
   gradient norm :     0.0011998 Eh/α   predicted    -0.5064160E-05 ( -51.64%)
   displ. norm   :     0.1018886 α      lambda       -0.7830967E-05
   maximum displ.:     0.0541806 α      in ANC's #2, #3, #1, ...

........................................................................
.............................. CYCLE   18 ..............................
........................................................................

 iter      E             dE          RMSdq      gap      omega  full diag
   1   -108.3355760 -0.108336E+03  0.197E-02    2.78       0.0  T
   2   -108.3355763 -0.303567E-06  0.939E-03    2.78       1.3  T
   3   -108.3355763 -0.124111E-07  0.229E-03    2.78       5.3  T
   4   -108.3355763  0.173619E-07  0.130E-03    2.78       9.4  T
   5   -108.3355764 -0.699598E-07  0.346E-04    2.78      35.1  T
   6   -108.3355764 -0.182828E-08  0.245E-04    2.78      49.5  T
     SCC iter.                  ...        0 min,  0.712 sec
     gradient                   ...        0 min,  0.111 sec
 * total energy  :  -106.8908078 Eh     change       -0.8301116E-05 Eh
   gradient norm :     0.0007409 Eh/α   predicted    -0.3937023E-05 ( -52.57%)
   displ. norm   :     0.0739461 α      lambda       -0.4433046E-05
   maximum displ.:     0.0382198 α      in ANC's #2, #1, #3, ...

........................................................................
.............................. CYCLE   19 ..............................
........................................................................

 iter      E             dE          RMSdq      gap      omega  full diag
   1   -108.3356011 -0.108336E+03  0.144E-02    2.78       0.0  T
   2   -108.3356013 -0.185090E-06  0.673E-03    2.78       1.8  T
   3   -108.3356013 -0.818480E-08  0.169E-03    2.78       7.2  T
   4   -108.3356013  0.915051E-09  0.974E-04    2.78      12.4  T
   5   -108.3356014 -0.293428E-07  0.292E-04    2.78      41.5  T
     SCC iter.                  ...        0 min,  0.499 sec
     gradient                   ...        0 min,  0.110 sec
 * total energy  :  -106.8908123 Eh     change       -0.4493049E-05 Eh
   gradient norm :     0.0003793 Eh/α   predicted    -0.2223394E-05 ( -50.51%)
   displ. norm   :     0.0397299 α      lambda       -0.1914519E-05
   maximum displ.:     0.0238174 α      in ANC's #1, #2, #4, ...

........................................................................
.............................. CYCLE   20 ..............................
........................................................................

 iter      E             dE          RMSdq      gap      omega  full diag
   1   -108.3355284 -0.108336E+03  0.815E-03    2.78       0.0  T
   2   -108.3355285 -0.534636E-07  0.394E-03    2.78       3.1  T
   3   -108.3355285  0.103628E-08  0.998E-04    2.78      12.2  T
   4   -108.3355285 -0.533200E-08  0.584E-04    2.78      20.8  T
     SCC iter.                  ...        0 min,  0.343 sec
     gradient                   ...        0 min,  0.108 sec
 * total energy  :  -106.8908144 Eh     change       -0.2149254E-05 Eh
   gradient norm :     0.0003731 Eh/α   predicted    -0.9586344E-06 ( -55.40%)
   displ. norm   :     0.0300270 α      lambda       -0.1612832E-05
   maximum displ.:     0.0204613 α      in ANC's #1, #4, #5, ...
 * RMSD in coord.:     0.3456672 α      energy gain  -0.2316134E-01 Eh

generating ANC from exact Hessian ...
Using Lindh-Hessian (1995)
 Shifting diagonal of input Hessian by    9.8627891515515927E-003
 Lowest  eigenvalues of input Hessian
    0.000000    0.000000    0.000000    0.000000    0.000000    0.000000
    0.010000    0.010273    0.010342    0.010426    0.010504    0.011165
    0.011308    0.011517    0.011701    0.011871    0.012088    0.012422
 Highest eigenvalues
    2.016466    2.028828    2.038848    2.050328    2.141776    2.290620


........................................................................
.............................. CYCLE   21 ..............................
........................................................................

 iter      E             dE          RMSdq      gap      omega  full diag
   1   -108.3355819 -0.108336E+03  0.610E-03    2.78       0.0  T
   2   -108.3355819 -0.209339E-07  0.318E-03    2.78       3.8  T
   3   -108.3355819  0.615822E-08  0.751E-04    2.78      16.2  T
   4   -108.3355819 -0.559240E-08  0.425E-04    2.78      28.5  T
     SCC iter.                  ...        0 min,  0.514 sec
     gradient                   ...        0 min,  0.118 sec
 * total energy  :  -106.8908163 Eh     change       -0.1903654E-05 Eh
   gradient norm :     0.0003466 Eh/α   predicted     0.0000000E+00 (-100.00%)
   displ. norm   :     0.0118121 α      lambda       -0.7486115E-06
   maximum displ.:     0.0090254 α      in ANC's #1, #3, #7, ...

........................................................................
.............................. CYCLE   22 ..............................
........................................................................

 iter      E             dE          RMSdq      gap      omega  full diag
   1   -108.3355828 -0.108336E+03  0.217E-03    2.78       0.0  T
   2   -108.3355829 -0.570682E-08  0.122E-03    2.78       9.9  T
   3   -108.3355829  0.585615E-09  0.314E-04    2.78      38.7  T
   4   -108.3355829 -0.156989E-08  0.130E-04    2.78      93.4  T
     SCC iter.                  ...        0 min,  0.397 sec
     gradient                   ...        0 min,  0.110 sec
 * total energy  :  -106.8908174 Eh     change       -0.1078345E-05 Eh
   gradient norm :     0.0001787 Eh/α   predicted    -0.4192597E-06 ( -61.12%)
   displ. norm   :     0.0292772 α      lambda       -0.1365890E-05
   maximum displ.:     0.0198571 α      in ANC's #1, #7, #3, ...

........................................................................
.............................. CYCLE   23 ..............................
........................................................................

 iter      E             dE          RMSdq      gap      omega  full diag
   1   -108.3355719 -0.108336E+03  0.527E-03    2.78       0.0  T
   2   -108.3355719 -0.152887E-07  0.291E-03    2.78       4.2  T
   3   -108.3355719  0.554175E-08  0.616E-04    2.78      19.7  T
   4   -108.3355719 -0.796484E-08  0.281E-04    2.78      43.2  T
     SCC iter.                  ...        0 min,  0.484 sec
     gradient                   ...        0 min,  0.110 sec
 * total energy  :  -106.8908192 Eh     change       -0.1805466E-05 Eh
   gradient norm :     0.0003086 Eh/α   predicted    -0.8084293E-06 ( -55.22%)
   displ. norm   :     0.0409773 α      lambda       -0.1801138E-05
   maximum displ.:     0.0276176 α      in ANC's #1, #5, #7, ...

........................................................................
.............................. CYCLE   24 ..............................
........................................................................

 iter      E             dE          RMSdq      gap      omega  full diag
   1   -108.3355335 -0.108336E+03  0.721E-03    2.78       0.0  T
   2   -108.3355335 -0.413829E-07  0.398E-03    2.78       3.0  T
   3   -108.3355335  0.111498E-07  0.950E-04    2.78      12.8  T
   4   -108.3355335 -0.119252E-07  0.478E-04    2.78      25.4  T
     SCC iter.                  ...        0 min,  0.405 sec
     gradient                   ...        0 min,  0.128 sec
 * total energy  :  -106.8908209 Eh     change       -0.1627163E-05 Eh
   gradient norm :     0.0005510 Eh/α   predicted    -0.9018475E-06 ( -44.58%)
   displ. norm   :     0.0393326 α      lambda       -0.1757952E-05
   maximum displ.:     0.0255324 α      in ANC's #1, #5, #7, ...

........................................................................
.............................. CYCLE   25 ..............................
........................................................................

 iter      E             dE          RMSdq      gap      omega  full diag
   1   -108.3354877 -0.108335E+03  0.781E-03    2.78       0.0  T
   2   -108.3354878 -0.369252E-07  0.414E-03    2.78       2.9  T
   3   -108.3354878  0.755685E-08  0.855E-04    2.78      14.2  T
   4   -108.3354878 -0.726233E-08  0.485E-04    2.78      25.0  T
     SCC iter.                  ...        0 min,  0.455 sec
     gradient                   ...        0 min,  0.109 sec
 * total energy  :  -106.8908230 Eh     change       -0.2090318E-05 Eh
   gradient norm :     0.0005101 Eh/α   predicted    -0.8798584E-06 ( -57.91%)
   displ. norm   :     0.0697597 α      lambda       -0.2755783E-05
   maximum displ.:     0.0461512 α      in ANC's #1, #5, #3, ...

........................................................................
.............................. CYCLE   26 ..............................
........................................................................

 iter      E             dE          RMSdq      gap      omega  full diag
   1   -108.3355191 -0.108336E+03  0.117E-02    2.78       0.0  T
   2   -108.3355191 -0.585518E-07  0.651E-03    2.78       1.9  T
   3   -108.3355191  0.271343E-07  0.122E-03    2.78       9.9  T
   4   -108.3355191 -0.320052E-07  0.626E-04    2.78      19.4  T
   5   -108.3355191 -0.127465E-07  0.194E-04    2.78      62.5  T
     SCC iter.                  ...        0 min,  0.616 sec
     gradient                   ...        0 min,  0.119 sec
 * total energy  :  -106.8908263 Eh     change       -0.3366631E-05 Eh
   gradient norm :     0.0004100 Eh/α   predicted    -0.1381572E-05 ( -58.96%)
   displ. norm   :     0.0786322 α      lambda       -0.2839516E-05
   maximum displ.:     0.0520314 α      in ANC's #1, #5, #4, ...

........................................................................
.............................. CYCLE   27 ..............................
........................................................................

 iter      E             dE          RMSdq      gap      omega  full diag
   1   -108.3355468 -0.108336E+03  0.131E-02    2.78       0.0  T
   2   -108.3355469 -0.579704E-07  0.734E-03    2.78       1.7  T
   3   -108.3355468  0.333922E-07  0.126E-03    2.78       9.6  T
   4   -108.3355469 -0.390140E-07  0.664E-04    2.78      18.3  T
   5   -108.3355469 -0.141592E-07  0.194E-04    2.78      62.4  T
     SCC iter.                  ...        0 min,  0.579 sec
     gradient                   ...        0 min,  0.111 sec
 * total energy  :  -106.8908298 Eh     change       -0.3463783E-05 Eh
   gradient norm :     0.0002667 Eh/α   predicted    -0.1426475E-05 ( -58.82%)
   displ. norm   :     0.0701427 α      lambda       -0.2233705E-05
   maximum displ.:     0.0473105 α      in ANC's #1, #5, #3, ...

........................................................................
.............................. CYCLE   28 ..............................
........................................................................

 iter      E             dE          RMSdq      gap      omega  full diag
   1   -108.3355582 -0.108336E+03  0.115E-02    2.78       0.0  T
   2   -108.3355582 -0.460172E-07  0.645E-03    2.78       1.9  T
   3   -108.3355582  0.230178E-07  0.109E-03    2.78      11.1  T
   4   -108.3355582 -0.264764E-07  0.593E-04    2.78      20.5  T
   5   -108.3355583 -0.126620E-07  0.185E-04    2.78      65.5  T
     SCC iter.                  ...        0 min,  0.587 sec
     gradient                   ...        0 min,  0.115 sec
 * total energy  :  -106.8908326 Eh     change       -0.2791500E-05 Eh
   gradient norm :     0.0002671 Eh/α   predicted    -0.1120226E-05 ( -59.87%)
   displ. norm   :     0.0545547 α      lambda       -0.1664209E-05
   maximum displ.:     0.0370060 α      in ANC's #1, #5, #2, ...

........................................................................
.............................. CYCLE   29 ..............................
........................................................................

 iter      E             dE          RMSdq      gap      omega  full diag
   1   -108.3355768 -0.108336E+03  0.904E-03    2.78       0.0  T
   2   -108.3355768 -0.262747E-07  0.501E-03    2.78       2.4  T
   3   -108.3355768  0.610375E-08  0.842E-04    2.78      14.4  T
   4   -108.3355768 -0.594741E-08  0.478E-04    2.78      25.4  T
     SCC iter.                  ...        0 min,  0.438 sec
     gradient                   ...        0 min,  0.110 sec
 * total energy  :  -106.8908348 Eh     change       -0.2247962E-05 Eh
   gradient norm :     0.0002761 Eh/α   predicted    -0.8367312E-06 ( -62.78%)
   displ. norm   :     0.0617737 α      lambda       -0.2038752E-05
   maximum displ.:     0.0416364 α      in ANC's #1, #5, #2, ...

........................................................................
.............................. CYCLE   30 ..............................
........................................................................

 iter      E             dE          RMSdq      gap      omega  full diag
   1   -108.3355836 -0.108336E+03  0.104E-02    2.78       0.0  T
   2   -108.3355836 -0.394575E-07  0.567E-03    2.78       2.1  T
   3   -108.3355836  0.640951E-08  0.105E-03    2.78      11.6  T
   4   -108.3355836 -0.161603E-08  0.594E-04    2.78      20.4  T
   5   -108.3355836 -0.174462E-07  0.155E-04    2.78      78.2  T
     SCC iter.                  ...        0 min,  0.489 sec
     gradient                   ...        0 min,  0.113 sec
 * total energy  :  -106.8908377 Eh     change       -0.2842269E-05 Eh
   gradient norm :     0.0002627 Eh/α   predicted    -0.1024179E-05 ( -63.97%)
   displ. norm   :     0.0833820 α      lambda       -0.2816260E-05
   maximum displ.:     0.0556788 α      in ANC's #1, #5, #2, ...

........................................................................
.............................. CYCLE   31 ..............................
........................................................................

 iter      E             dE          RMSdq      gap      omega  full diag
   1   -108.3355345 -0.108336E+03  0.142E-02    2.78       0.0  T
   2   -108.3355346 -0.777912E-07  0.762E-03    2.78       1.6  T
   3   -108.3355346  0.199287E-08  0.144E-03    2.78       8.4  T
   4   -108.3355346  0.551826E-08  0.774E-04    2.78      15.7  T
   5   -108.3355346 -0.296859E-07  0.191E-04    2.78      63.6  T
     SCC iter.                  ...        0 min,  0.607 sec
     gradient                   ...        0 min,  0.110 sec
 * total energy  :  -106.8908414 Eh     change       -0.3770141E-05 Eh
   gradient norm :     0.0002442 Eh/α   predicted    -0.1415441E-05 ( -62.46%)
   displ. norm   :     0.1043644 α      lambda       -0.3188373E-05
   maximum displ.:     0.0698513 α      in ANC's #1, #5, #2, ...

........................................................................
.............................. CYCLE   32 ..............................
........................................................................

 iter      E             dE          RMSdq      gap      omega  full diag
   1   -108.3355121 -0.108336E+03  0.177E-02    2.78       0.0  T
   2   -108.3355122 -0.135238E-06  0.940E-03    2.78       1.3  T
   3   -108.3355123 -0.621058E-08  0.185E-03    2.78       6.5  T
   4   -108.3355122  0.114334E-07  0.931E-04    2.78      13.0  T
   5   -108.3355123 -0.392660E-07  0.242E-04    2.78      50.1  T
     SCC iter.                  ...        0 min,  0.657 sec
     gradient                   ...        0 min,  0.111 sec
 * total energy  :  -106.8908455 Eh     change       -0.4086672E-05 Eh
   gradient norm :     0.0002383 Eh/α   predicted    -0.1603694E-05 ( -60.76%)
   displ. norm   :     0.1036555 α      lambda       -0.2627099E-05
   maximum displ.:     0.0701017 α      in ANC's #1, #5, #2, ...

........................................................................
.............................. CYCLE   33 ..............................
........................................................................

 iter      E             dE          RMSdq      gap      omega  full diag
   1   -108.3354833 -0.108335E+03  0.171E-02    2.78       0.0  T
   2   -108.3354834 -0.126980E-06  0.906E-03    2.78       1.3  T
   3   -108.3354834 -0.100994E-07  0.178E-03    2.78       6.8  T
   4   -108.3354834  0.164438E-07  0.871E-04    2.78      13.9  T
   5   -108.3354834 -0.388400E-07  0.246E-04    2.78      49.3  T
     SCC iter.                  ...        0 min,  0.584 sec
     gradient                   ...        0 min,  0.111 sec
 * total energy  :  -106.8908488 Eh     change       -0.3318280E-05 Eh
   gradient norm :     0.0002096 Eh/α   predicted    -0.1320571E-05 ( -60.20%)
   displ. norm   :     0.0803290 α      lambda       -0.1748618E-05
   maximum displ.:     0.0551381 α      in ANC's #1, #5, #2, ...

........................................................................
.............................. CYCLE   34 ..............................
........................................................................

 iter      E             dE          RMSdq      gap      omega  full diag
   1   -108.3355202 -0.108336E+03  0.130E-02    2.78       0.0  T
   2   -108.3355203 -0.825267E-07  0.674E-03    2.78       1.8  T
   3   -108.3355203 -0.872501E-08  0.140E-03    2.78       8.7  T
   4   -108.3355203  0.852398E-08  0.646E-04    2.78      18.8  T
   5   -108.3355203 -0.196336E-07  0.204E-04    2.78      59.4  T
     SCC iter.                  ...        0 min,  0.513 sec
     gradient                   ...        0 min,  0.110 sec
 * total energy  :  -106.8908511 Eh     change       -0.2260071E-05 Eh
   gradient norm :     0.0001785 Eh/α   predicted    -0.8788925E-06 ( -61.11%)
   displ. norm   :     0.0593604 α      lambda       -0.1240284E-05
   maximum displ.:     0.0412539 α      in ANC's #1, #5, #2, ...

........................................................................
.............................. CYCLE   35 ..............................
........................................................................

 iter      E             dE          RMSdq      gap      omega  full diag
   1   -108.3355513 -0.108336E+03  0.926E-03    2.78       0.0  T
   2   -108.3355514 -0.451780E-07  0.475E-03    2.78       2.6  T
   3   -108.3355514 -0.553513E-08  0.101E-03    2.78      12.0  T
   4   -108.3355514  0.458070E-08  0.459E-04    2.78      26.4  T
   5   -108.3355514 -0.100320E-07  0.162E-04    2.78      74.7  T
     SCC iter.                  ...        0 min,  0.582 sec
     gradient                   ...        0 min,  0.112 sec
 * total energy  :  -106.8908527 Eh     change       -0.1620634E-05 Eh
   gradient norm :     0.0001362 Eh/α   predicted    -0.6225311E-06 ( -61.59%)
   displ. norm   :     0.0525318 α      lambda       -0.1033127E-05
   maximum displ.:     0.0367974 α      in ANC's #1, #5, #2, ...

........................................................................
.............................. CYCLE   36 ..............................
........................................................................

 iter      E             dE          RMSdq      gap      omega  full diag
   1   -108.3355633 -0.108336E+03  0.809E-03    2.78       0.0  T
   2   -108.3355634 -0.378635E-07  0.407E-03    2.78       3.0  T
   3   -108.3355634 -0.433272E-08  0.889E-04    2.78      13.6  T
   4   -108.3355634  0.342530E-08  0.412E-04    2.78      29.5  T
     SCC iter.                  ...        0 min,  0.385 sec
     gradient                   ...        0 min,  0.111 sec
 * total energy  :  -106.8908540 Eh     change       -0.1280476E-05 Eh
   gradient norm :     0.0000992 Eh/α   predicted    -0.5178445E-06 ( -59.56%)
   displ. norm   :     0.0429143 α      lambda       -0.6791105E-06
   maximum displ.:     0.0302662 α      in ANC's #1, #5, #2, ...

........................................................................
.............................. CYCLE   37 ..............................
........................................................................

 iter      E             dE          RMSdq      gap      omega  full diag
   1   -108.3355735 -0.108336E+03  0.660E-03    2.78       0.0  T
   2   -108.3355735 -0.248448E-07  0.333E-03    2.78       3.6  T
   3   -108.3355735  0.153605E-09  0.757E-04    2.78      16.0  T
   4   -108.3355735  0.178203E-08  0.417E-04    2.78      29.1  T
     SCC iter.                  ...        0 min,  0.335 sec
     gradient                   ...        0 min,  0.113 sec
 * total energy  :  -106.8908548 Eh     change       -0.8153120E-06 Eh
   gradient norm :     0.0000869 Eh/α   predicted    -0.3412399E-06 ( -58.15%)
   displ. norm   :     0.0289046 α      lambda       -0.3446507E-06
   maximum displ.:     0.0209670 α      in ANC's #1, #2, #5, ...

........................................................................
.............................. CYCLE   38 ..............................
........................................................................

 iter      E             dE          RMSdq      gap      omega  full diag
   1   -108.3355745 -0.108336E+03  0.465E-03    2.78       0.0  T
   2   -108.3355745 -0.128082E-07  0.232E-03    2.78       5.2  T
   3   -108.3355745  0.146568E-08  0.546E-04    2.78      22.2  T
   4   -108.3355745  0.196380E-09  0.322E-04    2.78      37.7  T
     SCC iter.                  ...        0 min,  0.479 sec
     gradient                   ...        0 min,  0.115 sec
 * total energy  :  -106.8908552 Eh     change       -0.4278042E-06 Eh
   gradient norm :     0.0000718 Eh/α   predicted    -0.1745319E-06 ( -59.20%)
   displ. norm   :     0.0145509 α      lambda       -0.1656763E-06
   maximum displ.:     0.0108665 α      in ANC's #1, #2, #3, ...

........................................................................
.............................. CYCLE   39 ..............................
........................................................................

 iter      E             dE          RMSdq      gap      omega  full diag
   1   -108.3355793 -0.108336E+03  0.250E-03    2.78       0.0  T
   2   -108.3355793 -0.370942E-08  0.127E-03    2.78       9.6  T
   3   -108.3355793  0.120789E-08  0.314E-04    2.78      38.6  T
   4   -108.3355793 -0.938897E-09  0.188E-04    2.78      64.6  T
     SCC iter.                  ...        0 min,  0.417 sec
     gradient                   ...        0 min,  0.115 sec
 * total energy  :  -106.8908555 Eh     change       -0.2306642E-06 Eh
   gradient norm :     0.0000489 Eh/α   predicted    -0.8507339E-07 ( -63.12%)
   displ. norm   :     0.0120855 α      lambda       -0.1505017E-06
   maximum displ.:     0.0091661 α      in ANC's #1, #2, #3, ...

........................................................................
.............................. CYCLE   40 ..............................
........................................................................

 iter      E             dE          RMSdq      gap      omega  full diag
   1   -108.3355751 -0.108336E+03  0.227E-03    2.78       0.0  T
   2   -108.3355751 -0.293556E-08  0.115E-03    2.78      10.5  T
   3   -108.3355751  0.936623E-09  0.274E-04    2.78      44.3  T
   4   -108.3355751 -0.617433E-09  0.165E-04    2.78      73.4  T
     SCC iter.                  ...        0 min,  0.476 sec
     gradient                   ...        0 min,  0.110 sec
 * total energy  :  -106.8908557 Eh     change       -0.2073760E-06 Eh
   gradient norm :     0.0000413 Eh/α   predicted    -0.7966611E-07 ( -61.58%)
   displ. norm   :     0.0113680 α      lambda       -0.1412515E-06
   maximum displ.:     0.0088017 α      in ANC's #1, #2, #3, ...

........................................................................
.............................. CYCLE   41 ..............................
........................................................................

 iter      E             dE          RMSdq      gap      omega  full diag
   1   -108.3355746 -0.108336E+03  0.207E-03    2.78       0.0  T
   2   -108.3355746 -0.205372E-08  0.108E-03    2.78      11.2  T
   3   -108.3355746  0.644192E-09  0.236E-04    2.78      51.4  T
   4   -108.3355746 -0.388326E-09  0.141E-04    2.78      85.8  T
     SCC iter.                  ...        0 min,  0.503 sec
     gradient                   ...        0 min,  0.113 sec
 * total energy  :  -106.8908559 Eh     change       -0.1851817E-06 Eh
   gradient norm :     0.0000372 Eh/α   predicted    -0.7291255E-07 ( -60.63%)
   displ. norm   :     0.0094886 α      lambda       -0.1047956E-06
   maximum displ.:     0.0075060 α      in ANC's #1, #3, #2, ...

........................................................................
.............................. CYCLE   42 ..............................
........................................................................

 iter      E             dE          RMSdq      gap      omega  full diag
   1   -108.3355690 -0.108336E+03  0.163E-03    2.78       0.0  T
   2   -108.3355690 -0.114976E-08  0.869E-04    2.78      14.0  T
   3   -108.3355690  0.794415E-09  0.191E-04    2.78      63.4  T
     SCC iter.                  ...        0 min,  0.324 sec
     gradient                   ...        0 min,  0.114 sec
 * total energy  :  -106.8908560 Eh     change       -0.1516666E-06 Eh
   gradient norm :     0.0000324 Eh/α   predicted    -0.5537912E-07 ( -63.49%)
   displ. norm   :     0.0077120 α      lambda       -0.8739034E-07
   maximum displ.:     0.0061531 α      in ANC's #1, #5, #3, ...
 * RMSD in coord.:     0.1125883 α      energy gain  -0.4157137E-04 Eh

generating ANC from exact Hessian ...
Using Lindh-Hessian (1995)
 Shifting diagonal of input Hessian by    9.8556448499721675E-003
 Lowest  eigenvalues of input Hessian
    0.000000    0.000000    0.000000    0.000000    0.000000    0.000000
    0.010000    0.010278    0.010334    0.010411    0.010505    0.011154
    0.011321    0.011550    0.011697    0.011857    0.012126    0.012429
 Highest eigenvalues
    2.016390    2.029050    2.038709    2.050367    2.141638    2.288012


........................................................................
.............................. CYCLE   43 ..............................
........................................................................

 iter      E             dE          RMSdq      gap      omega  full diag
   1   -108.3355686 -0.108336E+03  0.116E-03    2.78       0.0  T
   2   -108.3355686 -0.483354E-09  0.658E-04    2.78      18.4  T
   3   -108.3355686  0.139620E-08  0.155E-04    2.78      78.3  T
     SCC iter.                  ...        0 min,  0.369 sec
     gradient                   ...        0 min,  0.111 sec
 * total energy  :  -106.8908561 Eh     change       -0.1301518E-06 Eh
   gradient norm :     0.0000321 Eh/α   predicted     0.0000000E+00 (-100.00%)
   displ. norm   :     0.0000482 α      lambda        0.0000000E+00
   maximum displ.:     0.0000271 α      in ANC's #1, #5, #181, ...

........................................................................
.............................. CYCLE   44 ..............................
........................................................................

 iter      E             dE          RMSdq      gap      omega  full diag
   1   -108.3355702 -0.108336E+03  0.702E-05    2.78       0.0  T
   2   -108.3355702 -0.351577E-10  0.427E-05    2.78     284.1  T
   3   -108.3355702 -0.372467E-10  0.319E-05    2.78     380.1  T
     SCC iter.                  ...        0 min,  0.362 sec
     gradient                   ...        0 min,  0.116 sec
 * total energy  :  -106.8908562 Eh     change       -0.2981409E-08 Eh
   gradient norm :     0.0000272 Eh/α   predicted    -0.7997055E-09 ( -73.18%)
   displ. norm   :     0.0000482 α      lambda        0.0000000E+00
   maximum displ.:     0.0000271 α      in ANC's #1, #5, #181, ...

   *** GEOMETRY OPTIMIZATION CONVERGED AFTER 44 ITERATIONS ***

------------------------------------------------------------------------
 total energy gain   :        -0.0232030 Eh      -14.5601 kcal/mol
 total RMSD          :         0.3759761 a0        0.1990 Å
 total power (kW/mol):        -1.3845358 (step)   -1.5831 (real)
------------------------------------------------------------------------

 ANCopt (total)                0 d,  0 h,  0 min, 38.480 sec
 optimizer setup                ...        0 min,  0.001 sec (  0.002%)
 model hessian                  ...        0 min,  0.124 sec (  0.323%)
 ANC generation                 ...        0 min,  0.013 sec (  0.033%)
 coordinate transformation      ...        0 min,  0.001 sec (  0.004%)
 single point calculation       ...        0 min, 37.354 sec ( 97.072%)
 optimization log               ...        0 min,  0.006 sec (  0.017%)
 hessian update                 ...        0 min,  0.958 sec (  2.490%)
 rational function              ...        0 min,  0.007 sec (  0.019%)

================
 final structure:
================
68
 xtb: 6.7.1 (edcfbbe)
C            3.42822591381149       -3.36226082738593       -0.54914146080726
C            2.39637960264991       -2.56601857874778       -1.34066167892772
C            2.20461735142386       -3.15125868802153       -2.73776390358570
N            1.09785677060201       -2.45719853624306       -0.64633859838342
C            0.36185734578292       -3.69637552620007       -0.34488362416913
C            0.42500838790801       -4.08226914255454        1.12842208399675
C           -1.07290802087406       -3.57651932496911       -0.84560942763975
P            0.94235248002393       -1.10310995373133        0.25507966599775
S            2.41288785588715       -0.66538919746991        1.72341951544426
S            3.43798679852251        0.88760188784091        0.89426995151958
C            2.47491504196149        2.28092658938254        1.45798747849693
C            2.03291120076208        3.19550240531558        0.51723791227458
C            1.32375951454361        4.30515025717483        0.95621866031048
Cl           0.76841592803840        5.46444944602349       -0.19043978138258
C            1.05193345223593        4.49089072681839        2.30375473087514
C            1.49955566144060        3.55059440398540        3.22167937023839
Cl           1.17926526235845        3.77629531297062        4.89365022288260
C            2.21824738631854        2.43859949507577        2.80949508832541
O           -0.47377042957458       -1.18720779925454        0.92675765941427
C           -0.84646154217752       -0.06362295642157        1.71229281091301
C           -0.56694553041790       -0.06539208259052        3.07212536758243
C           -0.88450847726228        1.04317727966697        3.83625910634224
C           -1.42138218840130        2.17794013101865        3.24338854842156
C           -1.67383964139692        2.17238180156189        1.88753762384895
C           -1.42316982161918        1.03470260329772        1.11425142303528
C           -1.91248386997876        1.24120896846993       -0.28987863188023
C           -1.85748523845367        2.78710321707324       -0.39402182348936
C           -2.18726867457678        3.27987541330650        1.02062053417782
C           -3.36786255325880        0.74895382857125       -0.48017004976409
C           -3.55291379784175        0.70235582444345       -2.00329835534920
C           -2.16702453189944        0.43046020235056       -2.50385294313411
C           -1.77240320541871        0.02937395480818       -3.76322986060714
C           -0.42482716578281       -0.20052250087839       -4.00431738345461
C            0.49377400799952       -0.12032344600516       -2.97298171335834
C            0.07781322773075        0.25366885861699       -1.70281776310188
C           -1.23657965620794        0.60190052213714       -1.47201936465155
O            1.02167321545739        0.20063277153423       -0.63648284210009
H            3.57898500165361       -2.93759383064651        0.44095576947938
H            3.12627734663263       -4.40066502429644       -0.44319045065646
H            4.37746470350331       -3.33956050389998       -1.07747606729821
H            2.76170057380274       -1.53440139261427       -1.43732952645875
H            3.08627577126627       -2.94626601242483       -3.33862390195734
H            1.33801274675769       -2.71321248824316       -3.22510254367125
H            2.07262757140304       -4.22890510585708       -2.69948351262258
H            0.86058060028713       -4.47362600578313       -0.92724827804618
H            0.03843221849073       -5.09025869958061        1.25532240578439
H           -0.17845087977851       -3.41204075294139        1.73353121771213
H            1.45014732269940       -4.06063289188015        1.49124754790724
H           -1.08477789807109       -3.25846024420661       -1.88537150829270
H           -1.63439771101669       -2.85930697635032       -0.25501030216255
H           -1.56460219395246       -4.54266702999780       -0.77229600664935
H            2.24876668934715        3.05499372611986       -0.52938463210292
H            0.51059390528290        5.36129539712832        2.63715220466957
H            2.57475398801688        1.71828459704150        3.52865066533135
H           -0.10732683123618       -0.93489739564329        3.51612552111677
H           -0.68349847223634        1.03132590981420        4.89517928452418
H           -1.63215286788396        3.05372913897200        3.83584030189834
H           -2.54208160924035        3.17111124392731       -1.14534454697925
H           -0.84555982452699        3.09295853246964       -0.66366272278909
H           -1.71444047068961        4.23358013718376        1.24830698422997
H           -3.26357404861370        3.40139678569319        1.15950465766647
H           -4.08631591347485        1.39721228841411        0.01451872823817
H           -3.46699788350676       -0.25455737875906       -0.06201056790382
H           -3.91900111224247        1.65496960582896       -2.39114651777267
H           -4.25546611963055       -0.06986805710481       -2.31457624130762
H           -2.49881675731291       -0.09933514352744       -4.55003166919115
H           -0.09115002676878       -0.47851818578594       -4.99141841885104
H            1.53639012071470       -0.33235558402236       -3.14416542215629

 Bond Distances (Angstroems)
 ---------------------------
C1-C2=1.5249         C1-H38=1.0878        C1-H39=1.0866        C1-H40=1.0866        C2-C1=1.5249         C2-C3=1.5268         
C2-N4=1.4765         C2-H41=1.0987        C3-C2=1.5268         C3-H42=1.0865        C3-H43=1.0865        C3-H44=1.0864        
N4-C2=1.4765         N4-C5=1.4725         N4-P8=1.6341         C5-N4=1.4725         C5-C6=1.5243         C5-C7=1.5244         
C5-H45=1.0918        C6-C5=1.5243         C6-H46=1.0870        C6-H47=1.0861        C6-H48=1.0877        C7-C5=1.5244         
C7-H49=1.0874        C7-H50=1.0856        C7-H51=1.0865        P8-N4=1.6341         P8-S9=2.1237         P8-O19=1.5696        
P8-O37=1.5814        S9-P8=2.1237         S9-S10=2.0372        S10-S9=2.0372        S10-C11=1.7851       C11-S10=1.7851       
C11-C12=1.3845       C11-C18=1.3847       C12-C11=1.3845       C12-C13=1.3881       C12-H52=1.0778       C13-C12=1.3881       
C13-Cl14=1.7226      C13-C15=1.3872       Cl14-C13=1.7226      C15-C13=1.3872       C15-C16=1.3882       C15-H53=1.0779       
C16-C15=1.3882       C16-Cl17=1.7173      C16-C18=1.3867       Cl17-C16=1.7173      C18-C11=1.3847       C18-C16=1.3867       
C18-H54=1.0785       O19-P8=1.5696        O19-C20=1.4207       C20-O19=1.4207       C20-C21=1.3883       C20-C25=1.3772       
C21-C20=1.3883       C21-C22=1.3834       C21-H55=1.0791       C22-C21=1.3834       C22-C23=1.3883       C22-H56=1.0779       
C23-C22=1.3883       C23-C24=1.3792       C23-H57=1.0782       C24-C23=1.3792       C24-C25=1.3983       C24-C28=1.4972       
C25-C20=1.3772       C25-C24=1.3983       C25-C26=1.5012       C26-C25=1.5012       C26-C27=1.5504       C26-C29=1.5481       
C26-C36=1.5043       C27-C26=1.5504       C27-C28=1.5339       C27-H58=1.0866       C27-H59=1.0910       C28-C24=1.4972       
C28-C27=1.5339       C28-H60=1.0886       C28-H61=1.0920       C29-C26=1.5481       C29-C30=1.5350       C29-H62=1.0868       
C29-H63=1.0917       C30-C29=1.5350       C30-C31=1.4984       C30-H64=1.0918       C30-H65=1.0894       C31-C30=1.4984       
C31-C32=1.3794       C31-C36=1.3999       C32-C31=1.3794       C32-C33=1.3881       C32-H66=1.0786       C33-C32=1.3881       
C33-C34=1.3834       C33-H67=1.0784       C34-C33=1.3834       C34-C35=1.3879       C34-H68=1.0776       C35-C34=1.3879       
C35-C36=1.3792       C35-O37=1.4250       C36-C26=1.5043       C36-C31=1.3999       C36-C35=1.3792       O37-P8=1.5814        
O37-C35=1.4250       H38-C1=1.0878        H39-C1=1.0866        H40-C1=1.0866        H41-C2=1.0987        H42-C3=1.0865        
H43-C3=1.0865        H44-C3=1.0864        H45-C5=1.0918        H46-C6=1.0870        H47-C6=1.0861        H48-C6=1.0877        
H49-C7=1.0874        H50-C7=1.0856        H51-C7=1.0865        H52-C12=1.0778       H53-C15=1.0779       H54-C18=1.0785       
H55-C21=1.0791       H56-C22=1.0779       H57-C23=1.0782       H58-C27=1.0866       H59-C27=1.0910       H60-C28=1.0886       
H61-C28=1.0920       H62-C29=1.0868       H63-C29=1.0917       H64-C30=1.0918       H65-C30=1.0894       H66-C32=1.0786       
H67-C33=1.0784       H68-C34=1.0776       
 C  H  Rav=1.0856 sigma=0.0054  Rmin=1.0776  Rmax=1.0987    31
 C  C  Rav=1.4407 sigma=0.0678  Rmin=1.3772  Rmax=1.5504    30
 N  C  Rav=1.4745 sigma=0.0020  Rmin=1.4725  Rmax=1.4765     2
 O  C  Rav=1.4229 sigma=0.0022  Rmin=1.4207  Rmax=1.4250     2
 P  N  Rav=1.6341 sigma=0.0000  Rmin=1.6341  Rmax=1.6341     1
 P  O  Rav=1.5755 sigma=0.0059  Rmin=1.5696  Rmax=1.5814     2
 S  C  Rav=1.7851 sigma=0.0000  Rmin=1.7851  Rmax=1.7851     1
 S  P  Rav=2.1237 sigma=0.0000  Rmin=2.1237  Rmax=2.1237     1
 S  S  Rav=2.0372 sigma=0.0000  Rmin=2.0372  Rmax=2.0372     1
 Cl C  Rav=1.7199 sigma=0.0026  Rmin=1.7173  Rmax=1.7226     2

 selected bond angles (degree)
 --------------------
H38-C1-C2=111.25               H39-C1-C2=111.20               H39-C1-H38=108.83              H40-C1-C2=109.14               
H40-C1-H38=108.26              H40-C1-H39=108.07              C3-C2-C1=111.09                N4-C2-C1=112.92                
N4-C2-C3=110.37                H41-C2-C1=108.12               H41-C2-C3=108.73               H41-C2-N4=105.34               
H42-C3-C2=109.38               H43-C3-C2=110.86               H43-C3-H42=108.85              H44-C3-C2=111.30               
H44-C3-H42=107.77              H44-C3-H43=108.59              C5-N4-C2=118.28                P8-N4-C2=113.84                
P8-N4-C5=122.47                C6-C5-N4=112.97                C7-C5-N4=109.70                C7-C5-C6=112.11                
H45-C5-N4=105.16               H45-C5-C6=108.45               H45-C5-C7=108.10               H46-C6-C5=109.44               
H47-C6-C5=111.06               H47-C6-H46=108.04              H48-C6-C5=110.88               H48-C6-H46=108.34              
H48-C6-H47=109.00              H49-C7-C5=110.33               H50-C7-C5=111.10               H50-C7-H49=108.74              
H51-C7-C5=109.50               H51-C7-H49=108.64              H51-C7-H50=108.46              S9-P8-N4=119.10                
O19-P8-N4=106.11               O19-P8-S9=109.87               O37-P8-N4=111.55               O37-P8-S9=100.67               
O37-P8-O19=109.31              S10-S9-P8=102.95               C11-S10-S9=101.25              

 selected dihedral angles (degree)
 ---------------------------------
C3-C2-C1-H38=179.06           C3-C2-C1-H39=300.54           C3-C2-C1-H40= 59.67           N4-C2-C1-H38=303.68           
N4-C2-C1-H39= 65.17           N4-C2-C1-H40=184.29           H41-C2-C1-H38= 59.82          H41-C2-C1-H39=181.31          
H41-C2-C1-H40=300.43          H42-C3-C2-C1=288.75           H42-C3-C2-N4=162.70           H42-C3-C2-H41= 47.61          
H43-C3-C2-C1=168.71           H43-C3-C2-N4= 42.66           H43-C3-C2-H41=287.57          H44-C3-C2-C1= 47.73           
H44-C3-C2-N4=281.68           H44-C3-C2-H41=166.59          C5-N4-C2-C1=298.91            C5-N4-C2-C3= 63.92            
C5-N4-C2-H41=181.12           P8-N4-C2-C1= 93.63            P8-N4-C2-C3=218.64            P8-N4-C2-H41=335.84           
C6-C5-N4-C2=105.34            C6-C5-N4-P8=312.92            C7-C5-N4-C2=231.21            C7-C5-N4-P8= 78.79            
H45-C5-N4-C2=347.25           H45-C5-N4-P8=194.82           H46-C6-C5-N4=191.03           H46-C6-C5-C7= 66.47           
H46-C6-C5-H45=307.19          H47-C6-C5-N4= 71.84           H47-C6-C5-C7=307.28           H47-C6-C5-H45=188.00          
H48-C6-C5-N4=310.50           H48-C6-C5-C7=185.93           H48-C6-C5-H45= 66.66          H49-C7-C5-N4= 51.17           
H49-C7-C5-C6=177.53           H49-C7-C5-H45=297.01          H50-C7-C5-N4=290.49           H50-C7-C5-C6= 56.85           
H50-C7-C5-H45=176.33          H51-C7-C5-N4=170.70           H51-C7-C5-C6=297.06           H51-C7-C5-H45= 56.54          
S9-P8-N4-C2=305.59            S9-P8-N4-C5= 99.13            O19-P8-N4-C2=181.15           O19-P8-N4-C5=334.68           
O37-P8-N4-C2= 62.19           O37-P8-N4-C5=215.72           S10-S9-P8-N4=107.09           S10-S9-P8-O19=229.70          
S10-S9-P8-O37=344.91          C11-S10-S9-P8= 87.72          
           -------------------------------------------------
          |                Final Singlepoint                |
           -------------------------------------------------

          ...................................................
          :                      SETUP                      :
          :.................................................:
          :  # basis functions                 209          :
          :  # atomic orbitals                 204          :
          :  # shells                          110          :
          :  # electrons                       194          :
          :  max. iterations                   250          :
          :  Hamiltonian                  GFN2-xTB          :
          :  restarted?                      false          :
          :  GBSA solvation                  false          :
          :  PC potential                    false          :
          :  electronic temp.          300.0000000     K    :
          :  accuracy                    1.0000000          :
          :  -> integral cutoff          0.2500000E+02      :
          :  -> integral neglect         0.1000000E-07      :
          :  -> SCF convergence          0.1000000E-05 Eh   :
          :  -> wf. convergence          0.1000000E-03 e    :
          :  Broyden damping             0.4000000          :
          :  net charge                          1          :
          :  unpaired electrons                  0          :
          ...................................................

 iter      E             dE          RMSdq      gap      omega  full diag
   1   -108.3355702 -0.108336E+03  0.153E-05    2.78       0.0  T
   2   -108.3355702 -0.174794E-11  0.128E-05    2.78     949.5  T
   3   -108.3355702 -0.639488E-12  0.101E-05    2.78    1200.8  T

   *** convergence criteria satisfied after 3 iterations ***

         #    Occupation            Energy/Eh            Energy/eV
      -------------------------------------------------------------
         1        2.0000           -1.1529967             -31.3746
       ...           ...                  ...                  ...
        91        2.0000           -0.5179570             -14.0943
        92        2.0000           -0.5160384             -14.0421
        93        2.0000           -0.5123719             -13.9423
        94        2.0000           -0.5096278             -13.8677
        95        2.0000           -0.5029521             -13.6860
        96        2.0000           -0.4999659             -13.6048
        97        2.0000           -0.4977598             -13.5447 (HOMO)
        98                         -0.3956351             -10.7658 (LUMO)
        99                         -0.3631193              -9.8810
       100                         -0.3553105              -9.6685
       101                         -0.3498807              -9.5207
       102                         -0.3454937              -9.4014
       ...                                ...                  ...
       204                          1.0934202              29.7535
      -------------------------------------------------------------
                  HL-Gap            0.1021247 Eh            2.7790 eV
             Fermi-level           -0.4466974 Eh          -12.1553 eV

 SCC (total)                   0 d,  0 h,  0 min,  0.455 sec
 SCC setup                      ...        0 min,  0.032 sec (  7.052%)
 Dispersion                     ...        0 min,  0.014 sec (  3.006%)
 classical contributions        ...        0 min,  0.022 sec (  4.817%)
 integral evaluation            ...        0 min,  0.005 sec (  1.026%)
 iterations                     ...        0 min,  0.270 sec ( 59.279%)
 molecular gradient             ...        0 min,  0.108 sec ( 23.817%)
 printout                       ...        0 min,  0.005 sec (  1.000%)

         :::::::::::::::::::::::::::::::::::::::::::::::::::::
         ::                     SUMMARY                     ::
         :::::::::::::::::::::::::::::::::::::::::::::::::::::
         :: total energy            -106.890856150614 Eh    ::
         :: gradient norm              0.000028179934 Eh/a0 ::
         :: HOMO-LUMO gap              2.778953608465 eV    ::
         ::.................................................::
         :: SCC energy              -108.329398182500 Eh    ::
         :: -> isotropic ES            0.112867800071 Eh    ::
         :: -> anisotropic ES         -0.009569556468 Eh    ::
         :: -> anisotropic XC          0.049120551545 Eh    ::
         :: -> dispersion             -0.112440443070 Eh    ::
         :: repulsion energy           1.438542031886 Eh    ::
         :: add. restraining           0.000000000000 Eh    ::
         :: total charge               1.000000000000 e     ::
         :::::::::::::::::::::::::::::::::::::::::::::::::::::

           -------------------------------------------------
          |                Property Printout                |
           -------------------------------------------------

    * Orbital Energies and Occupations

         #    Occupation            Energy/Eh            Energy/eV
      -------------------------------------------------------------
         1        2.0000           -1.1529967             -31.3746
       ...           ...                  ...                  ...
        85        2.0000           -0.5410144             -14.7218
        86        2.0000           -0.5376149             -14.6292
        87        2.0000           -0.5338985             -14.5281
        88        2.0000           -0.5238293             -14.2541
        89        2.0000           -0.5226690             -14.2225
        90        2.0000           -0.5184377             -14.1074
        91        2.0000           -0.5179570             -14.0943
        92        2.0000           -0.5160384             -14.0421
        93        2.0000           -0.5123719             -13.9423
        94        2.0000           -0.5096278             -13.8677
        95        2.0000           -0.5029521             -13.6860
        96        2.0000           -0.4999659             -13.6048
        97        2.0000           -0.4977598             -13.5447 (HOMO)
        98                         -0.3956351             -10.7658 (LUMO)
        99                         -0.3631193              -9.8810
       100                         -0.3553105              -9.6685
       101                         -0.3498807              -9.5207
       102                         -0.3454937              -9.4014
       103                         -0.3436297              -9.3506
       104                         -0.3423858              -9.3168
       105                         -0.3362513              -9.1499
       106                         -0.3061387              -8.3305
       107                         -0.2557906              -6.9604
       108                         -0.2477964              -6.7429
       ...                                ...                  ...
       204                          1.0934202              29.7535
      -------------------------------------------------------------
                  HL-Gap            0.1021247 Eh            2.7790 eV
             Fermi-level           -0.4466974 Eh          -12.1553 eV

     #   Z          covCN         q      C6AA      α(0)
     1   6 C        3.754    -0.127    22.997     6.838
     2   6 C        4.034     0.049    19.678     6.301
     3   6 C        3.755    -0.124    22.937     6.829
     4   7 N        2.680    -0.168    24.645     7.373
     5   6 C        3.907     0.044    19.783     6.322
     6   6 C        3.755    -0.128    23.017     6.841
     7   6 C        3.755    -0.124    22.941     6.829
     8  15 P        4.549     0.573   137.225    21.043
     9  16 S        1.902    -0.060   143.534    20.164
    10  16 S        2.085     0.009   140.691    19.963
    11   6 C        2.978     0.038    27.147     8.547
    12   6 C        3.000    -0.049    29.196     8.863
    13   6 C        2.890     0.105    25.679     8.308
    14  17 Cl       0.970    -0.123   102.986    15.526
    15   6 C        2.994    -0.050    29.232     8.869
    16   6 C        2.891     0.104    25.692     8.310
    17  17 Cl       0.974    -0.116   102.778    15.510
    18   6 C        2.994    -0.051    29.256     8.873
    19   8 O        1.658    -0.252    18.196     5.759
    20   6 C        3.210     0.117    24.837     8.112
    21   6 C        2.918    -0.054    29.348     8.884
    22   6 C        2.924    -0.025    28.633     8.775
    23   6 C        2.916    -0.038    28.954     8.824
    24   6 C        3.022     0.014    27.681     8.630
    25   6 C        3.023    -0.015    28.366     8.736
    26   6 C        3.966     0.024    20.106     6.371
    27   6 C        3.856    -0.063    21.676     6.622
    28   6 C        3.834    -0.068    21.779     6.640
    29   6 C        3.853    -0.061    21.625     6.614
    30   6 C        3.834    -0.067    21.757     6.636
    31   6 C        3.024     0.017    27.595     8.617
    32   6 C        2.915    -0.037    28.923     8.819
    33   6 C        2.924    -0.028    28.690     8.784
    34   6 C        2.919    -0.054    29.353     8.884
    35   6 C        3.204     0.122    24.794     8.111
    36   6 C        3.021    -0.014    28.342     8.733
    37   8 O        1.658    -0.274    18.565     5.817
    38   1 H        0.925     0.048     2.344     2.394
    39   1 H        0.925     0.061     2.183     2.310
    40   1 H        0.925     0.071     2.071     2.251
    41   1 H        0.924     0.046     2.366     2.406
    42   1 H        0.925     0.068     2.106     2.270
    43   1 H        0.925     0.057     2.233     2.337
    44   1 H        0.925     0.062     2.171     2.304
    45   1 H        0.924     0.071     2.074     2.252
    46   1 H        0.925     0.071     2.078     2.254
    47   1 H        0.925     0.056     2.249     2.345
    48   1 H        0.925     0.053     2.288     2.366
    49   1 H        0.925     0.052     2.299     2.371
    50   1 H        0.925     0.056     2.248     2.345
    51   1 H        0.925     0.070     2.089     2.260
    52   1 H        0.926     0.082     1.953     2.186
    53   1 H        0.926     0.095     1.827     2.114
    54   1 H        0.926     0.083     1.952     2.185
    55   1 H        0.926     0.062     2.178     2.308
    56   1 H        0.926     0.071     2.072     2.251
    57   1 H        0.926     0.067     2.114     2.274
    58   1 H        0.925     0.057     2.233     2.337
    59   1 H        0.924     0.044     2.395     2.420
    60   1 H        0.925     0.062     2.177     2.307
    61   1 H        0.924     0.068     2.107     2.270
    62   1 H        0.925     0.055     2.253     2.347
    63   1 H        0.924     0.043     2.414     2.430
    64   1 H        0.924     0.066     2.128     2.281
    65   1 H        0.925     0.064     2.155     2.296
    66   1 H        0.926     0.066     2.129     2.282
    67   1 H        0.926     0.066     2.128     2.281
    68   1 H        0.926     0.063     2.164     2.300

 Mol. C6AA /au·bohr⁶  :      67912.559680
 Mol. C8AA /au·bohr⁸  :    1927656.648852
 Mol. α(0) /au        :        411.010046


Wiberg/Mayer (AO) data.
largest (>0.10) Wiberg bond orders for each atom

 ---------------------------------------------------------------------------
     #   Z sym  total        # sym  WBO       # sym  WBO       # sym  WBO
 ---------------------------------------------------------------------------
     1   6 C    3.989 --     2 C    1.006    39 H    0.981    40 H    0.979
                            38 H    0.978
     2   6 C    3.955 --     1 C    1.006     3 C    1.003    41 H    0.946
                             4 N    0.937
     3   6 C    3.987 --     2 C    1.003    43 H    0.980    42 H    0.980
                            44 H    0.979
     4   7 N    3.384 --     8 P    1.245     2 C    0.937     5 C    0.935
     5   6 C    3.951 --     7 C    1.007     6 C    1.007    45 H    0.954
                             4 N    0.935
     6   6 C    3.990 --     5 C    1.007    48 H    0.979    46 H    0.979
                            47 H    0.976
     7   6 C    3.990 --     5 C    1.007    49 H    0.984    51 H    0.979
                            50 H    0.978
     8  15 P    5.130 --    19 O    1.306    37 O    1.285     4 N    1.245
                             9 S    0.959
     9  16 S    2.413 --    10 S    1.179     8 P    0.959
    10  16 S    2.351 --     9 S    1.179    11 C    0.988
    11   6 C    3.964 --    18 C    1.407    12 C    1.406    10 S    0.988
    12   6 C    3.984 --    11 C    1.406    13 C    1.387    52 H    0.962
    13   6 C    3.932 --    15 C    1.400    12 C    1.387    14 Cl   1.007
    14  17 Cl   1.155 --    13 C    1.007
    15   6 C    3.976 --    13 C    1.400    16 C    1.392    53 H    0.960
    16   6 C    3.934 --    15 C    1.392    18 C    1.392    17 Cl   1.012
    17  17 Cl   1.161 --    16 C    1.012
    18   6 C    3.984 --    11 C    1.407    16 C    1.392    54 H    0.961
    19   8 O    2.411 --     8 P    1.306    20 C    0.874
    20   6 C    3.875 --    25 C    1.406    21 C    1.382    19 O    0.874
    21   6 C    3.986 --    22 C    1.450    20 C    1.382    55 H    0.963
                            24 C    0.107
    22   6 C    3.984 --    21 C    1.450    23 C    1.420    56 H    0.967
                            25 C    0.104
    23   6 C    3.988 --    24 C    1.439    22 C    1.420    57 H    0.965
    24   6 C    3.984 --    23 C    1.439    25 C    1.345    28 C    1.017
                            21 C    0.107
    25   6 C    3.982 --    20 C    1.406    24 C    1.345    26 C    0.992
                            22 C    0.104
    26   6 C    3.989 --    25 C    0.992    36 C    0.989    29 C    0.957
                            27 C    0.955
    27   6 C    3.992 --    28 C    1.002    58 H    0.976    59 H    0.976
                            26 C    0.955
    28   6 C    3.993 --    24 C    1.017    27 C    1.002    60 H    0.964
                            61 H    0.954
    29   6 C    3.992 --    30 C    1.002    63 H    0.978    62 H    0.977
                            26 C    0.957
    30   6 C    3.994 --    31 C    1.017    29 C    1.002    65 H    0.964
                            64 H    0.954
    31   6 C    3.983 --    32 C    1.440    36 C    1.345    30 C    1.017
                            34 C    0.106
    32   6 C    3.987 --    31 C    1.440    33 C    1.420    66 H    0.966
    33   6 C    3.985 --    34 C    1.450    32 C    1.420    67 H    0.967
                            36 C    0.105
    34   6 C    3.986 --    33 C    1.450    35 C    1.384    68 H    0.961
                            31 C    0.106
    35   6 C    3.876 --    36 C    1.404    34 C    1.384    37 O    0.866
    36   6 C    3.982 --    35 C    1.404    31 C    1.345    26 C    0.989
                            33 C    0.105
    37   8 O    2.381 --     8 P    1.285    35 C    0.866
    38   1 H    0.998 --     1 C    0.978
    39   1 H    0.996 --     1 C    0.981
    40   1 H    0.994 --     1 C    0.979
    41   1 H    0.998 --     2 C    0.946
    42   1 H    0.994 --     3 C    0.980
    43   1 H    0.997 --     3 C    0.980
    44   1 H    0.996 --     3 C    0.979
    45   1 H    0.994 --     5 C    0.954
    46   1 H    0.995 --     6 C    0.979
    47   1 H    0.997 --     6 C    0.976
    48   1 H    0.997 --     6 C    0.979
    49   1 H    0.997 --     7 C    0.984
    50   1 H    0.997 --     7 C    0.978
    51   1 H    0.994 --     7 C    0.979
    52   1 H    0.993 --    12 C    0.962
    53   1 H    0.990 --    15 C    0.960
    54   1 H    0.993 --    18 C    0.961
    55   1 H    0.995 --    21 C    0.963
    56   1 H    0.994 --    22 C    0.967
    57   1 H    0.995 --    23 C    0.965
    58   1 H    0.996 --    27 C    0.976
    59   1 H    0.998 --    27 C    0.976
    60   1 H    0.995 --    28 C    0.964
    61   1 H    0.995 --    28 C    0.954
    62   1 H    0.996 --    29 C    0.977
    63   1 H    0.998 --    29 C    0.978
    64   1 H    0.995 --    30 C    0.954
    65   1 H    0.995 --    30 C    0.964
    66   1 H    0.995 --    32 C    0.966
    67   1 H    0.995 --    33 C    0.967
    68   1 H    0.995 --    34 C    0.961
 ---------------------------------------------------------------------------

Topologies differ in total number of bonds
Writing topology from bond orders to xtbtopo.mol

molecular dipole:
                 x           y           z       tot (Debye)
 q only:        0.134      -1.264      -0.529
   full:        0.165      -0.760      -0.390       2.211
molecular quadrupole (traceless):
                xx          xy          yy          xz          yz          zz
 q only:       -2.071     -16.361       6.247       1.161      13.159      -4.176
  q+dip:      -10.187     -16.553      12.199       1.149      15.923      -2.012
   full:       -8.566     -13.072      12.865       0.959      14.574      -4.299

           -------------------------------------------------
          |                Geometry Summary                 |
           -------------------------------------------------

      molecular mass/u    :      591.5722294
   center of mass at/Å    :        0.3876671       0.7102074       0.4708535
  moments of inertia/u·Å² :        0.3865102E+04   0.6092368E+04   0.7144447E+04
rotational constants/cm⁻¹ :        0.4361498E-02   0.2767008E-02   0.2359543E-02

 * 64 selected distances

     #   Z          #   Z                                           value/Å
     1   6 C        2   6 C                                       1.5248650
     2   6 C        3   6 C                                       1.5268182
     2   6 C        4   7 N                                       1.4765122
     4   7 N        5   6 C                                       1.4724572
     5   6 C        6   6 C                                       1.5243136
     5   6 C        7   6 C                                       1.5243503
     4   7 N        8  15 P                                       1.6341031
     8  15 P        9  16 S                                       2.1236988 (max)
     9  16 S       10  16 S                                       2.0371792
    11   6 C       12   6 C                                       1.3844950
    12   6 C       13   6 C                                       1.3881351
    13   6 C       14  17 Cl                                      1.7225583
    13   6 C       15   6 C                                       1.3871708
    15   6 C       16   6 C                                       1.3882034
    16   6 C       17  17 Cl                                      1.7172693
    11   6 C       18   6 C                                       1.3846704
    16   6 C       18   6 C                                       1.3867035
     8  15 P       19   8 O                                       1.5695950
    20   6 C       21   6 C                                       1.3882641
    21   6 C       22   6 C                                       1.3833557
    22   6 C       23   6 C                                       1.3883141
    23   6 C       24   6 C                                       1.3791656
    20   6 C       25   6 C                                       1.3771584
    24   6 C       25   6 C                                       1.3982565
    27   6 C       28   6 C                                       1.5338823
    29   6 C       30   6 C                                       1.5350360
    31   6 C       32   6 C                                       1.3793574
    32   6 C       33   6 C                                       1.3881416
    33   6 C       34   6 C                                       1.3834427
    34   6 C       35   6 C                                       1.3878798
    31   6 C       36   6 C                                       1.3999287
    35   6 C       36   6 C                                       1.3791890
     8  15 P       37   8 O                                       1.5814301
     1   6 C       38   1 H                                       1.0878249
     1   6 C       39   1 H                                       1.0865919
     1   6 C       40   1 H                                       1.0866035
     2   6 C       41   1 H                                       1.0986530
     3   6 C       42   1 H                                       1.0864513
     3   6 C       43   1 H                                       1.0864562
     3   6 C       44   1 H                                       1.0863741
     5   6 C       45   1 H                                       1.0917839
     6   6 C       46   1 H                                       1.0870087
     6   6 C       47   1 H                                       1.0860601
     6   6 C       48   1 H                                       1.0876675
     7   6 C       49   1 H                                       1.0873858
     7   6 C       50   1 H                                       1.0855744
     7   6 C       51   1 H                                       1.0865448
    12   6 C       52   1 H                                       1.0778475
    15   6 C       53   1 H                                       1.0778715
    18   6 C       54   1 H                                       1.0784876
    21   6 C       55   1 H                                       1.0790853
    22   6 C       56   1 H                                       1.0778950
    23   6 C       57   1 H                                       1.0781605
    27   6 C       58   1 H                                       1.0865636
    27   6 C       59   1 H                                       1.0909844
    28   6 C       60   1 H                                       1.0885589
    28   6 C       61   1 H                                       1.0920118
    29   6 C       62   1 H                                       1.0867987
    29   6 C       63   1 H                                       1.0916593
    30   6 C       64   1 H                                       1.0917506
    30   6 C       65   1 H                                       1.0894052
    32   6 C       66   1 H                                       1.0785639
    33   6 C       67   1 H                                       1.0784205
    34   6 C       68   1 H                                       1.0776410 (min)

 * 8 distinct bonds (by element types)

   Z      Z             #   av. dist./Å        max./Å        min./Å
   1 H    6 C          31     1.0855705     1.0986530     1.0776410
   6 C    6 C          24     1.4217124     1.5350360     1.3771584
   6 C    7 N           2     1.4744847     1.4765122     1.4724572
   7 N   15 P           1     1.6341031     1.6341031     1.6341031
   8 O   15 P           2     1.5755125     1.5814301     1.5695950
  15 P   16 S           1     2.1236988     2.1236988     2.1236988
  16 S   16 S           1     2.0371792     2.0371792     2.0371792
   6 C   17 Cl          2     1.7199138     1.7225583     1.7172693


optimized geometry written to: xtbopt.xyz


           -------------------------------------------------
          | TOTAL ENERGY             -106.890856150614 Eh   |
          | GRADIENT NORM               0.000028179934 Eh/α |
          | HOMO-LUMO GAP               2.778953608465 eV   |
           -------------------------------------------------

------------------------------------------------------------------------
 * finished run on 2024/12/16 at 21:10:40.724     
------------------------------------------------------------------------
 total:
 * wall-time:     0 d,  0 h,  0 min, 41.448 sec
 *  cpu-time:     0 d,  0 h,  5 min, 28.349 sec
 * ratio c/w:     7.922 speedup
 SCF:
 * wall-time:     0 d,  0 h,  0 min,  2.326 sec
 *  cpu-time:     0 d,  0 h,  0 min, 18.504 sec
 * ratio c/w:     7.954 speedup
 ANC optimizer:
 * wall-time:     0 d,  0 h,  0 min, 38.957 sec
 *  cpu-time:     0 d,  0 h,  5 min,  8.581 sec
 * ratio c/w:     7.921 speedup

