      -----------------------------------------------------------      
     |                   =====================                   |     
     |                           x T B                           |     
     |                   =====================                   |     
     |                         S. Grimme                         |     
     |          Mulliken Center for Theoretical Chemistry        |     
     |                    University of Bonn                     |     
      -----------------------------------------------------------      

   * xtb version 6.7.1 (edcfbbe) compiled by 'conda@3ef47c1a292c' on 2024-11-25

   xtb is free software: you can redistribute it and/or modify it under
   the terms of the GNU Lesser General Public License as published by
   the Free Software Foundation, either version 3 of the License, or
   (at your option) any later version.
   
   xtb is distributed in the hope that it will be useful,
   but WITHOUT ANY WARRANTY; without even the implied warranty of
   MERCHANTABILITY or FITNESS FOR A PARTICULAR PURPOSE.  See the
   GNU Lesser General Public License for more details.
   
   Cite this work as:
   * C. Bannwarth, E. Caldeweyher, S. Ehlert, A. Hansen, P. Pracht,
     J. Seibert, S. Spicher, S. Grimme, WIREs Comput. Mol. Sci., 2020, 11,
     e01493. DOI: 10.1002/wcms.1493
   
   for GFN2-xTB:
   * C. Bannwarth, S. Ehlert and S. Grimme., J. Chem. Theory Comput., 2019,
     15, 1652-1671. DOI: 10.1021/acs.jctc.8b01176
   for GFN1-xTB:
   * S. Grimme, C. Bannwarth, P. Shushkov, J. Chem. Theory Comput., 2017,
     13, 1989-2009. DOI: 10.1021/acs.jctc.7b00118
   for GFN0-xTB:
   * P. Pracht, E. Caldeweyher, S. Ehlert, S. Grimme, ChemRxiv, 2019, preprint.
     DOI: 10.26434/chemrxiv.8326202.v1
   for GFN-FF:
   * S. Spicher and S. Grimme, Angew. Chem. Int. Ed., 2020, 59, 15665-15673.
     DOI: 10.1002/anie.202004239
   
   for ALPB and GBSA implicit solvation:
   * S. Ehlert, M. Stahn, S. Spicher, S. Grimme, J. Chem. Theory Comput.,
     2021, 17, 4250-4261. DOI: 10.1021/acs.jctc.1c00471
   
   for ddCOSMO and CPCM-X implicit solvation:
   * M. Stahn, S. Ehlert, S. Grimme, J. Phys. Chem. A,
     2023, XX, XXXX-XXXX. DOI: 10.1021/acs.jpca.3c04382
   
   for DFT-D4:
   * E. Caldeweyher, C. Bannwarth and S. Grimme, J. Chem. Phys., 2017,
     147, 034112. DOI: 10.1063/1.4993215
   * E. Caldeweyher, S. Ehlert, A. Hansen, H. Neugebauer, S. Spicher,
     C. Bannwarth and S. Grimme, J. Chem. Phys., 2019, 150, 154122.
     DOI: 10.1063/1.5090222
   * E. Caldeweyher, J.-M. Mewes, S. Ehlert and S. Grimme, Phys. Chem. Chem. Phys.
     2020, 22, 8499-8512. DOI: 10.1039/D0CP00502A
   
   for sTDA-xTB:
   * S. Grimme and C. Bannwarth, J. Chem. Phys., 2016, 145, 054103.
     DOI: 10.1063/1.4959605
   
   in the mass-spec context:
   * V. Asgeirsson, C. Bauer and S. Grimme, Chem. Sci., 2017, 8, 4879.
     DOI: 10.1039/c7sc00601b
   * J. Koopman and S. Grimme, ACS Omega 2019, 4, 12, 15120-15133.
     DOI: 10.1021/acsomega.9b02011
   
   for metadynamics refer to:
   * S. Grimme, J. Chem. Theory Comput., 2019, 155, 2847-2862
     DOI: 10.1021/acs.jctc.9b00143
   
   for SPH calculations refer to:
   * S. Spicher and S. Grimme, J. Chem. Theory Comput., 2021, 17, 1701-1714
     DOI: 10.1021/acs.jctc.0c01306
   
   for ONIOM refer to:
   * C. Plett, A. Katbashev, S. Ehlert, S. Grimme, M. Bursch,
     Phys. Chem. Chem. Phys., 2023, 25, 17860-17868. DOI: 10.1039/D3CP02178E
   
   for DIPRO refer to:
   * J. Kohn, N. Gildemeister, S. Grimme, D. Fazzi, A. Hansen,
     J. Chem. Phys., 2023, just accepted.
   
   for PTB refer to:
   * S. Grimme, M. Mueller, A. Hansen, J. Chem. Phys., 2023, 158, 124111.
     DOI: 10.1063/5.0137838
   
   with help from (in alphabetical order)
   P. Atkinson, C. Bannwarth, F. Bohle, G. Brandenburg, E. Caldeweyher
   M. Checinski, S. Dohm, S. Ehlert, S. Ehrlich, I. Gerasimov, C. Hölzer
   A. Katbashev, J. Kohn, J. Koopman, C. Lavigne, S. Lehtola, F. März, M. Müller,
   F. Musil, H. Neugebauer, J. Pisarek, C. Plett, P. Pracht, F. Pultar,
   J. Seibert, P. Shushkov, S. Spicher, M. Stahn, M. Steiner, T. Strunk,
   J. Stückrath, T. Rose, and J. Unsleber
   
 * started run on 2024/12/16 at 18:43:58.549     
   ID    Z sym.   atoms
    1    6 C      1, 3-22, 24, 28-33, 35-51
    2    7 N      2, 23, 34
    3   15 P      25
    4   16 S      26, 27
    5    1 H      52-96

           -------------------------------------------------
          |                Calculation Setup                |
           -------------------------------------------------

          program call               : xtb --gfn2 --opt extreme -P 8 --charge 1 molecule.xyz
          hostname                   : node20
          coordinate file            : molecule.xyz
          omp threads                :                     8


           -------------------------------------------------
          |                 G F N 2 - x T B                 |
           -------------------------------------------------

        Reference                      10.1021/acs.jctc.8b01176
      * Hamiltonian:
        H0-scaling (s, p, d)           1.850000    2.230000    2.230000
        zeta-weighting                 0.500000
      * Dispersion:
        s8                             2.700000
        a1                             0.520000
        a2                             5.000000
        s9                             5.000000
      * Repulsion:
        kExp                           1.500000    1.000000
        rExp                           1.000000
      * Coulomb:
        alpha                          2.000000
        third order                    shell-resolved
        anisotropic                    true
        a3                             3.000000
        a5                             4.000000
        cn-shift                       1.200000
        cn-exp                         4.000000
        max-rad                        5.000000


          ...................................................
          :                      SETUP                      :
          :.................................................:
          :  # basis functions                 267          :
          :  # atomic orbitals                 264          :
          :  # shells                          150          :
          :  # electrons                       256          :
          :  max. iterations                   250          :
          :  Hamiltonian                  GFN2-xTB          :
          :  restarted?                      false          :
          :  GBSA solvation                  false          :
          :  PC potential                    false          :
          :  electronic temp.          300.0000000     K    :
          :  accuracy                    1.0000000          :
          :  -> integral cutoff          0.2500000E+02      :
          :  -> integral neglect         0.1000000E-07      :
          :  -> SCF convergence          0.1000000E-05 Eh   :
          :  -> wf. convergence          0.1000000E-03 e    :
          :  Broyden damping             0.4000000          :
          :  net charge                          1          :
          :  unpaired electrons                  0          :
          ...................................................

 iter      E             dE          RMSdq      gap      omega  full diag
   1   -138.7620066 -0.138762E+03  0.422E+00    1.71       0.0  T
   2   -138.9467349 -0.184728E+00  0.257E+00    2.09       1.0  T
   3   -138.9256308  0.211041E-01  0.128E+00    1.97       1.0  T
   4   -138.9525124 -0.268815E-01  0.618E-01    1.67       1.0  T
   5   -138.9787247 -0.262124E-01  0.266E-01    1.79       1.0  T
   6   -138.9811829 -0.245813E-02  0.146E-01    1.76       1.0  T
   7   -138.9832036 -0.202070E-02  0.440E-02    1.77       1.0  T
   8   -138.9832465 -0.429380E-04  0.203E-02    1.78       1.0  T
   9   -138.9832552 -0.872514E-05  0.940E-03    1.78       1.1  T
  10   -138.9832567 -0.143723E-05  0.492E-03    1.78       2.1  T
  11   -138.9832572 -0.572806E-06  0.248E-03    1.78       4.1  T
  12   -138.9832575 -0.245723E-06  0.123E-03    1.78       8.3  T
  13   -138.9832575 -0.121477E-07  0.696E-04    1.78      14.7  T
  14   -138.9832575 -0.133120E-07  0.346E-04    1.78      29.5  T

   *** convergence criteria satisfied after 14 iterations ***

         #    Occupation            Energy/Eh            Energy/eV
      -------------------------------------------------------------
         1        2.0000           -0.8546403             -23.2559
       ...           ...                  ...                  ...
       122        2.0000           -0.4891795             -13.3113
       123        2.0000           -0.4885177             -13.2932
       124        2.0000           -0.4849790             -13.1970
       125        2.0000           -0.4811987             -13.0941
       126        2.0000           -0.4801370             -13.0652
       127        2.0000           -0.4655371             -12.6679
       128        2.0000           -0.4513851             -12.2828 (HOMO)
       129                         -0.3861166             -10.5068 (LUMO)
       130                         -0.3689108             -10.0386
       131                         -0.3532896              -9.6135
       132                         -0.3473160              -9.4509
       133                         -0.3344101              -9.0998
       ...                                ...                  ...
       264                          1.0245171              27.8785
      -------------------------------------------------------------
                  HL-Gap            0.0652685 Eh            1.7760 eV
             Fermi-level           -0.4187509 Eh          -11.3948 eV

 SCC (total)                   0 d,  0 h,  0 min,  2.564 sec
 SCC setup                      ...        0 min,  0.000 sec (  0.019%)
 Dispersion                     ...        0 min,  0.003 sec (  0.107%)
 classical contributions        ...        0 min,  0.000 sec (  0.007%)
 integral evaluation            ...        0 min,  0.013 sec (  0.490%)
 iterations                     ...        0 min,  2.411 sec ( 94.012%)
 molecular gradient             ...        0 min,  0.122 sec (  4.749%)
 printout                       ...        0 min,  0.016 sec (  0.615%)

         :::::::::::::::::::::::::::::::::::::::::::::::::::::
         ::                     SUMMARY                     ::
         :::::::::::::::::::::::::::::::::::::::::::::::::::::
         :: total energy            -136.852210365598 Eh    ::
         :: gradient norm              0.137801387001 Eh/a0 ::
         :: HOMO-LUMO gap              1.776047164367 eV    ::
         ::.................................................::
         :: SCC energy              -138.974688651716 Eh    ::
         :: -> isotropic ES            0.075619945021 Eh    ::
         :: -> anisotropic ES          0.005951045285 Eh    ::
         :: -> anisotropic XC          0.083244522544 Eh    ::
         :: -> dispersion             -0.155062974863 Eh    ::
         :: repulsion energy           2.122478286118 Eh    ::
         :: add. restraining           0.000000000000 Eh    ::
         :: total charge               1.000000000000 e     ::
         :::::::::::::::::::::::::::::::::::::::::::::::::::::

      ----------------------------------------------------------- 
     |                   =====================                   |
     |                        A N C O P T                        |
     |                   =====================                   |
     |               Approximate Normal Coordinate               |
     |                Rational Function Optimizer                |
      ----------------------------------------------------------- 
      ----------------------------------------------------------- 
     |                   =====================                   |
     |                        A N C O P T                        |
     |                   =====================                   |
     |               Approximate Normal Coordinate               |
     |                Rational Function Optimizer                |
      ----------------------------------------------------------- 

          ...................................................
          :                      SETUP                      :
          :.................................................:
          :   optimization level           extreme          :
          :   max. optcycles                  1920          :
          :   ANC micro-cycles                  20          :
          :   degrees of freedom               282          :
          :.................................................:
          :   RF solver                   davidson          :
          :   write xtbopt.log                true          :
          :   linear?                        false          :
          :   energy convergence         0.5000000E-07 Eh   :
          :   grad. convergence          0.5000000E-04 Eh/α :
          :   maxmium RF displ.          1.0000000          :
          :   Hlow (freq-cutoff)         0.1000000E-01      :
          :   Hmax (freq-cutoff)         5.0000000          :
          :   S6 in model hess.         20.0000000          :
          ...................................................

generating ANC from exact Hessian ...
Using Lindh-Hessian (1995)
 Shifting diagonal of input Hessian by    9.9111353054980433E-003
 Lowest  eigenvalues of input Hessian
    0.000000    0.000000    0.000000    0.000000    0.000000    0.000000
    0.010000    0.010066    0.010149    0.010173    0.010323    0.010337
    0.010356    0.010479    0.010629    0.010824    0.010940    0.011148
 Highest eigenvalues
    1.945805    1.968355    2.003643    2.031264    2.067996    2.080872


........................................................................
.............................. CYCLE    1 ..............................
........................................................................

 iter      E             dE          RMSdq      gap      omega  full diag
   1   -138.9832575 -0.138983E+03  0.190E-04    1.78       0.0  T
   2   -138.9832575 -0.304993E-09  0.141E-04    1.78      72.6  T
   3   -138.9832575 -0.638352E-10  0.108E-04    1.78      94.5  T
     SCC iter.                  ...        0 min,  0.310 sec
     gradient                   ...        0 min,  0.121 sec
 * total energy  :  -136.8522104 Eh     change       -0.1914827E-08 Eh
   gradient norm :     0.1378031 Eh/α   predicted     0.0000000E+00 (-100.00%)
   displ. norm   :     0.4309256 α      lambda       -0.3142196E-01
   maximum displ.:     0.1111852 α      in ANC's #57, #26, #81, ...

........................................................................
.............................. CYCLE    2 ..............................
........................................................................

 iter      E             dE          RMSdq      gap      omega  full diag
   1   -139.0697812 -0.139070E+03  0.253E-01    1.88       0.0  T
   2   -139.0699387 -0.157542E-03  0.133E-01    1.95       1.0  T
   3   -139.0698604  0.782443E-04  0.462E-02    1.99       1.0  T
   4   -139.0699567 -0.962672E-04  0.217E-02    1.99       1.0  T
   5   -139.0699771 -0.203562E-04  0.109E-02    1.99       1.0  T
   6   -139.0699839 -0.684869E-05  0.414E-03    1.99       2.5  T
   7   -139.0699848 -0.831819E-06  0.238E-03    1.99       4.3  T
   8   -139.0699849 -0.161846E-06  0.139E-03    1.99       7.4  T
   9   -139.0699849 -0.239431E-07  0.732E-04    1.99      13.9  T
  10   -139.0699849 -0.616271E-08  0.332E-04    1.99      30.8  T
     SCC iter.                  ...        0 min,  1.691 sec
     gradient                   ...        0 min,  0.141 sec
 * total energy  :  -136.8743747 Eh     change       -0.2216433E-01 Eh
   gradient norm :     0.0599179 Eh/α   predicted    -0.1866182E-01 ( -15.80%)
   displ. norm   :     0.4526743 α      lambda       -0.1237101E-01
   maximum displ.:     0.1337152 α      in ANC's #18, #57, #26, ...

........................................................................
.............................. CYCLE    3 ..............................
........................................................................

 iter      E             dE          RMSdq      gap      omega  full diag
   1   -139.1235271 -0.139124E+03  0.200E-01    2.13       0.0  T
   2   -139.1236042 -0.770112E-04  0.106E-01    2.17       1.0  T
   3   -139.1235637  0.404296E-04  0.379E-02    2.19       1.0  T
   4   -139.1236187 -0.550099E-04  0.130E-02    2.19       1.0  T
   5   -139.1236260 -0.723923E-05  0.658E-03    2.19       1.6  T
   6   -139.1236282 -0.226382E-05  0.254E-03    2.19       4.0  T
   7   -139.1236285 -0.311375E-06  0.128E-03    2.19       8.0  T
   8   -139.1236286 -0.674725E-07  0.579E-04    2.19      17.6  T
   9   -139.1236286 -0.661180E-08  0.303E-04    2.19      33.7  T
     SCC iter.                  ...        0 min,  1.150 sec
     gradient                   ...        0 min,  0.122 sec
 * total energy  :  -136.8820851 Eh     change       -0.7710424E-02 Eh
   gradient norm :     0.0167042 Eh/α   predicted    -0.7453011E-02 (  -3.34%)
   displ. norm   :     0.4044170 α      lambda       -0.3228252E-02
   maximum displ.:     0.1779160 α      in ANC's #18, #21, #24, ...

........................................................................
.............................. CYCLE    4 ..............................
........................................................................

 iter      E             dE          RMSdq      gap      omega  full diag
   1   -139.1299931 -0.139130E+03  0.113E-01    2.24       0.0  T
   2   -139.1300227 -0.295984E-04  0.622E-02    2.25       1.0  T
   3   -139.1300129  0.982174E-05  0.220E-02    2.26       1.0  T
   4   -139.1300268 -0.139049E-04  0.760E-03    2.26       1.3  T
   5   -139.1300296 -0.281403E-05  0.340E-03    2.26       3.0  T
   6   -139.1300300 -0.412026E-06  0.160E-03    2.26       6.4  T
   7   -139.1300301 -0.720364E-07  0.840E-04    2.26      12.2  T
   8   -139.1300302 -0.468978E-07  0.421E-04    2.26      24.3  T
     SCC iter.                  ...        0 min,  1.277 sec
     gradient                   ...        0 min,  0.123 sec
 * total energy  :  -136.8844213 Eh     change       -0.2336212E-02 Eh
   gradient norm :     0.0150655 Eh/α   predicted    -0.1878122E-02 ( -19.61%)
   displ. norm   :     0.4513042 α      lambda       -0.2046273E-02
   maximum displ.:     0.2114458 α      in ANC's #18, #21, #12, ...

........................................................................
.............................. CYCLE    5 ..............................
........................................................................

 iter      E             dE          RMSdq      gap      omega  full diag
   1   -139.1317530 -0.139132E+03  0.889E-02    2.28       0.0  T
   2   -139.1317783 -0.252214E-04  0.531E-02    2.28       1.0  T
   3   -139.1317710  0.724213E-05  0.197E-02    2.28       1.0  T
   4   -139.1317823 -0.112584E-04  0.540E-03    2.28       1.9  T
   5   -139.1317835 -0.125382E-05  0.283E-03    2.28       3.6  T
   6   -139.1317838 -0.287615E-06  0.108E-03    2.28       9.5  T
   7   -139.1317838 -0.131788E-07  0.490E-04    2.28      20.8  T
   8   -139.1317838 -0.601202E-08  0.242E-04    2.28      42.1  T
     SCC iter.                  ...        0 min,  0.967 sec
     gradient                   ...        0 min,  0.127 sec
 * total energy  :  -136.8858559 Eh     change       -0.1434563E-02 Eh
   gradient norm :     0.0104881 Eh/α   predicted    -0.1231525E-02 ( -14.15%)
   displ. norm   :     0.3931411 α      lambda       -0.1006708E-02
   maximum displ.:     0.1786739 α      in ANC's #18, #5, #12, ...

........................................................................
.............................. CYCLE    6 ..............................
........................................................................

 iter      E             dE          RMSdq      gap      omega  full diag
   1   -139.1317794 -0.139132E+03  0.737E-02    2.28       0.0  T
   2   -139.1317908 -0.114628E-04  0.407E-02    2.28       1.0  T
   3   -139.1317881  0.273958E-05  0.125E-02    2.29       1.0  T
   4   -139.1317919 -0.380977E-05  0.539E-03    2.29       1.9  T
   5   -139.1317928 -0.859657E-06  0.200E-03    2.29       5.1  T
   6   -139.1317930 -0.180344E-06  0.746E-04    2.29      13.7  T
   7   -139.1317930 -0.232239E-07  0.359E-04    2.29      28.4  T
     SCC iter.                  ...        0 min,  0.915 sec
     gradient                   ...        0 min,  0.136 sec
 * total energy  :  -136.8865527 Eh     change       -0.6967628E-03 Eh
   gradient norm :     0.0060841 Eh/α   predicted    -0.5811576E-03 ( -16.59%)
   displ. norm   :     0.3473955 α      lambda       -0.5804530E-03
   maximum displ.:     0.1494659 α      in ANC's #5, #18, #4, ...

........................................................................
.............................. CYCLE    7 ..............................
........................................................................

 iter      E             dE          RMSdq      gap      omega  full diag
   1   -139.1339800 -0.139134E+03  0.568E-02    2.29       0.0  T
   2   -139.1339850 -0.500747E-05  0.326E-02    2.29       1.0  T
   3   -139.1339828  0.222109E-05  0.888E-03    2.29       1.1  T
   4   -139.1339857 -0.289544E-05  0.329E-03    2.29       3.1  T
   5   -139.1339859 -0.266909E-06  0.163E-03    2.29       6.3  T
   6   -139.1339860 -0.762698E-07  0.806E-04    2.29      12.7  T
   7   -139.1339860 -0.915878E-08  0.468E-04    2.29      21.8  T
     SCC iter.                  ...        0 min,  0.851 sec
     gradient                   ...        0 min,  0.121 sec
 * total energy  :  -136.8869446 Eh     change       -0.3919315E-03 Eh
   gradient norm :     0.0060719 Eh/α   predicted    -0.3252541E-03 ( -17.01%)
   displ. norm   :     0.3256164 α      lambda       -0.4256493E-03
   maximum displ.:     0.1547598 α      in ANC's #5, #4, #7, ...

........................................................................
.............................. CYCLE    8 ..............................
........................................................................

 iter      E             dE          RMSdq      gap      omega  full diag
   1   -139.1352741 -0.139135E+03  0.543E-02    2.29       0.0  T
   2   -139.1352777 -0.353025E-05  0.301E-02    2.29       1.0  T
   3   -139.1352753  0.236854E-05  0.838E-03    2.29       1.2  T
   4   -139.1352777 -0.238671E-05  0.400E-03    2.29       2.6  T
   5   -139.1352784 -0.693486E-06  0.170E-03    2.29       6.0  T
   6   -139.1352786 -0.226097E-06  0.701E-04    2.29      14.6  T
   7   -139.1352786 -0.246681E-07  0.390E-04    2.29      26.2  T
     SCC iter.                  ...        0 min,  1.176 sec
     gradient                   ...        0 min,  0.122 sec
 * total energy  :  -136.8872511 Eh     change       -0.3065258E-03 Eh
   gradient norm :     0.0065691 Eh/α   predicted    -0.2353899E-03 ( -23.21%)
   displ. norm   :     0.3391073 α      lambda       -0.3793155E-03
   maximum displ.:     0.1720920 α      in ANC's #5, #4, #7, ...

........................................................................
.............................. CYCLE    9 ..............................
........................................................................

 iter      E             dE          RMSdq      gap      omega  full diag
   1   -139.1363435 -0.139136E+03  0.559E-02    2.29       0.0  T
   2   -139.1363469 -0.341854E-05  0.316E-02    2.29       1.0  T
   3   -139.1363444  0.251690E-05  0.804E-03    2.29       1.3  T
   4   -139.1363470 -0.261079E-05  0.348E-03    2.29       2.9  T
   5   -139.1363475 -0.531398E-06  0.157E-03    2.29       6.5  T
   6   -139.1363477 -0.209773E-06  0.557E-04    2.29      18.3  T
   7   -139.1363478 -0.280340E-07  0.187E-04    2.29      54.5  T
     SCC iter.                  ...        0 min,  0.826 sec
     gradient                   ...        0 min,  0.121 sec
 * total energy  :  -136.8875574 Eh     change       -0.3063358E-03 Eh
   gradient norm :     0.0053999 Eh/α   predicted    -0.2114675E-03 ( -30.97%)
   displ. norm   :     0.4103418 α      lambda       -0.4149945E-03
   maximum displ.:     0.2130620 α      in ANC's #5, #4, #7, ...

........................................................................
.............................. CYCLE   10 ..............................
........................................................................

 iter      E             dE          RMSdq      gap      omega  full diag
   1   -139.1367868 -0.139137E+03  0.691E-02    2.30       0.0  T
   2   -139.1367914 -0.454749E-05  0.390E-02    2.30       1.0  T
   3   -139.1367888  0.255103E-05  0.915E-03    2.30       1.1  T
   4   -139.1367914 -0.262090E-05  0.421E-03    2.30       2.4  T
   5   -139.1367921 -0.715665E-06  0.185E-03    2.30       5.5  T
   6   -139.1367924 -0.252334E-06  0.748E-04    2.30      13.6  T
   7   -139.1367924 -0.324710E-07  0.433E-04    2.30      23.6  T
     SCC iter.                  ...        0 min,  1.102 sec
     gradient                   ...        0 min,  0.127 sec
 * total energy  :  -136.8878900 Eh     change       -0.3325680E-03 Eh
   gradient norm :     0.0047214 Eh/α   predicted    -0.2424364E-03 ( -27.10%)
   displ. norm   :     0.4534435 α      lambda       -0.3786313E-03
   maximum displ.:     0.2398205 α      in ANC's #5, #4, #7, ...

........................................................................
.............................. CYCLE   11 ..............................
........................................................................

 iter      E             dE          RMSdq      gap      omega  full diag
   1   -139.1355801 -0.139136E+03  0.765E-02    2.30       0.0  T
   2   -139.1355844 -0.429529E-05  0.421E-02    2.30       1.0  T
   3   -139.1355830  0.138549E-05  0.852E-03    2.30       1.2  T
   4   -139.1355836 -0.629169E-06  0.484E-03    2.30       2.1  T
   5   -139.1355851 -0.150261E-05  0.154E-03    2.30       6.6  T
   6   -139.1355854 -0.217871E-06  0.519E-04    2.30      19.7  T
   7   -139.1355854 -0.192090E-07  0.232E-04    2.30      43.9  T
     SCC iter.                  ...        0 min,  0.850 sec
     gradient                   ...        0 min,  0.125 sec
 * total energy  :  -136.8881917 Eh     change       -0.3017142E-03 Eh
   gradient norm :     0.0054540 Eh/α   predicted    -0.2282444E-03 ( -24.35%)
   displ. norm   :     0.4642900 α      lambda       -0.3436841E-03
   maximum displ.:     0.2496014 α      in ANC's #5, #4, #7, ...

........................................................................
.............................. CYCLE   12 ..............................
........................................................................

 iter      E             dE          RMSdq      gap      omega  full diag
   1   -139.1353271 -0.139135E+03  0.760E-02    2.32       0.0  T
   2   -139.1353309 -0.378209E-05  0.418E-02    2.31       1.0  T
   3   -139.1353301  0.766314E-06  0.837E-03    2.31       1.2  T
   4   -139.1353307 -0.586981E-06  0.440E-03    2.31       2.3  T
   5   -139.1353316 -0.928697E-06  0.132E-03    2.31       7.7  T
   6   -139.1353317 -0.108463E-06  0.535E-04    2.31      19.1  T
   7   -139.1353317 -0.612565E-08  0.346E-04    2.31      29.5  T
     SCC iter.                  ...        0 min,  1.117 sec
     gradient                   ...        0 min,  0.122 sec
 * total energy  :  -136.8884676 Eh     change       -0.2759065E-03 Eh
   gradient norm :     0.0057497 Eh/α   predicted    -0.2088866E-03 ( -24.29%)
   displ. norm   :     0.4790380 α      lambda       -0.3306825E-03
   maximum displ.:     0.2581360 α      in ANC's #5, #4, #7, ...

........................................................................
.............................. CYCLE   13 ..............................
........................................................................

 iter      E             dE          RMSdq      gap      omega  full diag
   1   -139.1349530 -0.139135E+03  0.756E-02    2.32       0.0  T
   2   -139.1349567 -0.363863E-05  0.422E-02    2.32       1.0  T
   3   -139.1349557  0.990498E-06  0.802E-03    2.32       1.3  T
   4   -139.1349567 -0.103148E-05  0.393E-03    2.32       2.6  T
   5   -139.1349573 -0.639802E-06  0.146E-03    2.32       7.0  T
   6   -139.1349575 -0.190460E-06  0.482E-04    2.32      21.2  T
   7   -139.1349575 -0.843940E-08  0.289E-04    2.32      35.3  T
     SCC iter.                  ...        0 min,  1.060 sec
     gradient                   ...        0 min,  0.128 sec
 * total energy  :  -136.8887355 Eh     change       -0.2678347E-03 Eh
   gradient norm :     0.0045588 Eh/α   predicted    -0.2032852E-03 ( -24.10%)
   displ. norm   :     0.4960411 α      lambda       -0.3154365E-03
   maximum displ.:     0.2647399 α      in ANC's #5, #4, #7, ...

........................................................................
.............................. CYCLE   14 ..............................
........................................................................

 iter      E             dE          RMSdq      gap      omega  full diag
   1   -139.1356955 -0.139136E+03  0.789E-02    2.34       0.0  T
   2   -139.1356990 -0.347992E-05  0.444E-02    2.34       1.0  T
   3   -139.1356979  0.108754E-05  0.799E-03    2.34       1.3  T
   4   -139.1356993 -0.136693E-05  0.354E-03    2.34       2.9  T
   5   -139.1356996 -0.385266E-06  0.141E-03    2.34       7.2  T
   6   -139.1356998 -0.167917E-06  0.424E-04    2.34      24.1  T
   7   -139.1356998 -0.708047E-08  0.230E-04    2.34      44.5  T
     SCC iter.                  ...        0 min,  0.984 sec
     gradient                   ...        0 min,  0.126 sec
 * total energy  :  -136.8889872 Eh     change       -0.2517084E-03 Eh
   gradient norm :     0.0039579 Eh/α   predicted    -0.1965299E-03 ( -21.92%)
   displ. norm   :     0.4939892 α      lambda       -0.2674047E-03
   maximum displ.:     0.2565094 α      in ANC's #5, #4, #7, ...

........................................................................
.............................. CYCLE   15 ..............................
........................................................................

 iter      E             dE          RMSdq      gap      omega  full diag
   1   -139.1362293 -0.139136E+03  0.799E-02    2.35       0.0  T
   2   -139.1362318 -0.254902E-05  0.456E-02    2.35       1.0  T
   3   -139.1362303  0.153515E-05  0.700E-03    2.35       1.5  T
   4   -139.1362320 -0.166535E-05  0.331E-03    2.35       3.1  T
   5   -139.1362325 -0.504901E-06  0.123E-03    2.35       8.3  T
   6   -139.1362326 -0.122768E-06  0.491E-04    2.35      20.8  T
   7   -139.1362326 -0.126217E-07  0.272E-04    2.35      37.5  T
     SCC iter.                  ...        0 min,  0.995 sec
     gradient                   ...        0 min,  0.125 sec
 * total energy  :  -136.8891968 Eh     change       -0.2096444E-03 Eh
   gradient norm :     0.0046069 Eh/α   predicted    -0.1663334E-03 ( -20.66%)
   displ. norm   :     0.4516165 α      lambda       -0.2128666E-03
   maximum displ.:     0.2320255 α      in ANC's #7, #4, #5, ...

........................................................................
.............................. CYCLE   16 ..............................
........................................................................

 iter      E             dE          RMSdq      gap      omega  full diag
   1   -139.1372793 -0.139137E+03  0.741E-02    2.37       0.0  T
   2   -139.1372808 -0.144084E-05  0.427E-02    2.37       1.0  T
   3   -139.1372793  0.143335E-05  0.549E-03    2.37       1.9  T
   4   -139.1372809 -0.161483E-05  0.256E-03    2.37       4.0  T
   5   -139.1372813 -0.326798E-06  0.815E-04    2.37      12.5  T
   6   -139.1372813 -0.508354E-07  0.348E-04    2.37      29.3  T
     SCC iter.                  ...        0 min,  0.734 sec
     gradient                   ...        0 min,  0.128 sec
 * total energy  :  -136.8893602 Eh     change       -0.1633533E-03 Eh
   gradient norm :     0.0043744 Eh/α   predicted    -0.1281466E-03 ( -21.55%)
   displ. norm   :     0.3919860 α      lambda       -0.1544726E-03
   maximum displ.:     0.2020700 α      in ANC's #7, #4, #5, ...

........................................................................
.............................. CYCLE   17 ..............................
........................................................................

 iter      E             dE          RMSdq      gap      omega  full diag
   1   -139.1377489 -0.139138E+03  0.634E-02    2.38       0.0  T
   2   -139.1377499 -0.958873E-06  0.370E-02    2.38       1.0  T
   3   -139.1377482  0.175084E-05  0.530E-03    2.38       1.9  T
   4   -139.1377503 -0.213984E-05  0.156E-03    2.38       6.5  T
   5   -139.1377503 -0.285686E-08  0.841E-04    2.38      12.1  T
   6   -139.1377504 -0.626218E-07  0.273E-04    2.38      37.4  T
     SCC iter.                  ...        0 min,  0.810 sec
     gradient                   ...        0 min,  0.122 sec
 * total energy  :  -136.8894765 Eh     change       -0.1163107E-03 Eh
   gradient norm :     0.0029725 Eh/α   predicted    -0.8910489E-04 ( -23.39%)
   displ. norm   :     0.3034134 α      lambda       -0.1021226E-03
   maximum displ.:     0.1534057 α      in ANC's #7, #4, #5, ...

........................................................................
.............................. CYCLE   18 ..............................
........................................................................

 iter      E             dE          RMSdq      gap      omega  full diag
   1   -139.1384384 -0.139138E+03  0.471E-02    2.38       0.0  T
   2   -139.1384391 -0.700311E-06  0.276E-02    2.38       1.0  T
   3   -139.1384377  0.134956E-05  0.483E-03    2.38       2.1  T
   4   -139.1384394 -0.163723E-05  0.109E-03    2.38       9.4  T
   5   -139.1384394  0.157240E-08  0.575E-04    2.38      17.7  T
   6   -139.1384394 -0.221231E-07  0.214E-04    2.38      47.7  T
     SCC iter.                  ...        0 min,  0.765 sec
     gradient                   ...        0 min,  0.125 sec
 * total energy  :  -136.8895528 Eh     change       -0.7631731E-04 Eh
   gradient norm :     0.0018339 Eh/α   predicted    -0.5576463E-04 ( -26.93%)
   displ. norm   :     0.3544110 α      lambda       -0.6793687E-04
   maximum displ.:     0.1748881 α      in ANC's #7, #4, #2, ...

........................................................................
.............................. CYCLE   19 ..............................
........................................................................

 iter      E             dE          RMSdq      gap      omega  full diag
   1   -139.1376999 -0.139138E+03  0.527E-02    2.38       0.0  T
   2   -139.1377010 -0.112257E-05  0.305E-02    2.38       1.0  T
   3   -139.1376990  0.199732E-05  0.601E-03    2.38       1.7  T
   4   -139.1377014 -0.239806E-05  0.169E-03    2.38       6.0  T
   5   -139.1377015 -0.474993E-07  0.642E-04    2.38      15.9  T
   6   -139.1377015 -0.264755E-07  0.268E-04    2.38      38.0  T
     SCC iter.                  ...        0 min,  0.846 sec
     gradient                   ...        0 min,  0.126 sec
 * total energy  :  -136.8896208 Eh     change       -0.6803889E-04 Eh
   gradient norm :     0.0027193 Eh/α   predicted    -0.3586713E-04 ( -47.28%)
   displ. norm   :     0.1124117 α      lambda       -0.4205986E-04
   maximum displ.:     0.0570461 α      in ANC's #2, #9, #1, ...

........................................................................
.............................. CYCLE   20 ..............................
........................................................................

 iter      E             dE          RMSdq      gap      omega  full diag
   1   -139.1395538 -0.139140E+03  0.172E-02    2.38       0.0  T
   2   -139.1395542 -0.324610E-06  0.875E-03    2.38       1.2  T
   3   -139.1395540  0.168961E-06  0.239E-03    2.38       4.3  T
   4   -139.1395542 -0.181021E-06  0.131E-03    2.38       7.8  T
   5   -139.1395543 -0.718955E-07  0.351E-04    2.38      29.1  T
   6   -139.1395543 -0.114765E-07  0.132E-04    2.38      77.4  T
     SCC iter.                  ...        0 min,  0.919 sec
     gradient                   ...        0 min,  0.130 sec
 * total energy  :  -136.8896531 Eh     change       -0.3228560E-04 Eh
   gradient norm :     0.0027188 Eh/α   predicted    -0.2129655E-04 ( -34.04%)
   displ. norm   :     0.2147776 α      lambda       -0.6663686E-04
   maximum displ.:     0.0983661 α      in ANC's #2, #9, #7, ...
 * RMSD in coord.:     0.5877084 α      energy gain  -0.3744277E-01 Eh

generating ANC from exact Hessian ...
Using Lindh-Hessian (1995)
 Shifting diagonal of input Hessian by    9.9271467130087020E-003
 Lowest  eigenvalues of input Hessian
    0.000000    0.000000    0.000000    0.000000    0.000000    0.000000
    0.010000    0.010044    0.010187    0.010258    0.010319    0.010374
    0.010399    0.010495    0.010567    0.010849    0.010920    0.011013
 Highest eigenvalues
    2.013992    2.027154    2.028036    2.074882    2.114926    2.125826


........................................................................
.............................. CYCLE   21 ..............................
........................................................................

 iter      E             dE          RMSdq      gap      omega  full diag
   1   -139.1378455 -0.139138E+03  0.325E-02    2.38       0.0  T
   2   -139.1378464 -0.816926E-06  0.178E-02    2.38       1.0  T
   3   -139.1378460  0.414762E-06  0.375E-03    2.38       2.7  T
   4   -139.1378464 -0.403576E-06  0.199E-03    2.38       5.1  T
   5   -139.1378466 -0.200481E-06  0.617E-04    2.38      16.5  T
   6   -139.1378466 -0.256059E-07  0.261E-04    2.38      39.2  T
     SCC iter.                  ...        0 min,  0.717 sec
     gradient                   ...        0 min,  0.122 sec
 * total energy  :  -136.8896948 Eh     change       -0.4170608E-04 Eh
   gradient norm :     0.0015706 Eh/α   predicted     0.0000000E+00 (-100.00%)
   displ. norm   :     0.0363245 α      lambda       -0.1072378E-04
   maximum displ.:     0.0196228 α      in ANC's #1, #15, #21, ...

........................................................................
.............................. CYCLE   22 ..............................
........................................................................

 iter      E             dE          RMSdq      gap      omega  full diag
   1   -139.1386545 -0.139139E+03  0.791E-03    2.38       0.0  T
   2   -139.1386546 -0.610245E-07  0.440E-03    2.38       2.3  T
   3   -139.1386546  0.977252E-08  0.927E-04    2.38      11.0  T
   4   -139.1386546 -0.185122E-07  0.407E-04    2.38      25.1  T
     SCC iter.                  ...        0 min,  0.438 sec
     gradient                   ...        0 min,  0.122 sec
 * total energy  :  -136.8897073 Eh     change       -0.1248274E-04 Eh
   gradient norm :     0.0006748 Eh/α   predicted    -0.5571437E-05 ( -55.37%)
   displ. norm   :     0.0765440 α      lambda       -0.1328805E-04
   maximum displ.:     0.0423608 α      in ANC's #1, #15, #21, ...

........................................................................
.............................. CYCLE   23 ..............................
........................................................................

 iter      E             dE          RMSdq      gap      omega  full diag
   1   -139.1389035 -0.139139E+03  0.140E-02    2.38       0.0  T
   2   -139.1389038 -0.340669E-06  0.764E-03    2.38       1.3  T
   3   -139.1389037  0.649721E-07  0.213E-03    2.38       4.8  T
   4   -139.1389038 -0.810930E-07  0.849E-04    2.38      12.0  T
   5   -139.1389038 -0.329706E-07  0.322E-04    2.38      31.7  T
     SCC iter.                  ...        0 min,  0.684 sec
     gradient                   ...        0 min,  0.128 sec
 * total energy  :  -136.8897186 Eh     change       -0.1131035E-04 Eh
   gradient norm :     0.0009230 Eh/α   predicted    -0.6662166E-05 ( -41.10%)
   displ. norm   :     0.0765947 α      lambda       -0.1019720E-04
   maximum displ.:     0.0471905 α      in ANC's #1, #13, #15, ...

........................................................................
.............................. CYCLE   24 ..............................
........................................................................

 iter      E             dE          RMSdq      gap      omega  full diag
   1   -139.1387434 -0.139139E+03  0.168E-02    2.38       0.0  T
   2   -139.1387441 -0.677382E-06  0.857E-03    2.38       1.2  T
   3   -139.1387440  0.440562E-07  0.271E-03    2.38       3.8  T
   4   -139.1387441 -0.460062E-07  0.136E-03    2.38       7.5  T
   5   -139.1387441 -0.768046E-07  0.676E-04    2.38      15.1  T
   6   -139.1387442 -0.180678E-07  0.374E-04    2.38      27.3  T
     SCC iter.                  ...        0 min,  0.681 sec
     gradient                   ...        0 min,  0.122 sec
 * total energy  :  -136.8897226 Eh     change       -0.3943066E-05 Eh
   gradient norm :     0.0013868 Eh/α   predicted    -0.5113421E-05 (  29.68%)
   displ. norm   :     0.0325729 α      lambda       -0.8019763E-05
   maximum displ.:     0.0196434 α      in ANC's #1, #12, #4, ...

........................................................................
.............................. CYCLE   25 ..............................
........................................................................

 iter      E             dE          RMSdq      gap      omega  full diag
   1   -139.1387576 -0.139139E+03  0.871E-03    2.38       0.0  T
   2   -139.1387578 -0.214496E-06  0.414E-03    2.38       2.5  T
   3   -139.1387578  0.172001E-07  0.146E-03    2.38       7.0  T
   4   -139.1387578 -0.228628E-07  0.825E-04    2.38      12.4  T
   5   -139.1387578 -0.263396E-07  0.321E-04    2.38      31.8  T
     SCC iter.                  ...        0 min,  0.640 sec
     gradient                   ...        0 min,  0.126 sec
 * total energy  :  -136.8897308 Eh     change       -0.8218704E-05 Eh
   gradient norm :     0.0007853 Eh/α   predicted    -0.4013850E-05 ( -51.16%)
   displ. norm   :     0.0666814 α      lambda       -0.9477340E-05
   maximum displ.:     0.0408547 α      in ANC's #1, #12, #4, ...

........................................................................
.............................. CYCLE   26 ..............................
........................................................................

 iter      E             dE          RMSdq      gap      omega  full diag
   1   -139.1388476 -0.139139E+03  0.155E-02    2.38       0.0  T
   2   -139.1388481 -0.427155E-06  0.742E-03    2.38       1.4  T
   3   -139.1388480  0.859128E-07  0.235E-03    2.38       4.3  T
   4   -139.1388481 -0.130795E-06  0.108E-03    2.38       9.4  T
   5   -139.1388481 -0.235512E-07  0.535E-04    2.38      19.1  T
   6   -139.1388481 -0.229263E-07  0.208E-04    2.38      49.0  T
     SCC iter.                  ...        0 min,  0.922 sec
     gradient                   ...        0 min,  0.122 sec
 * total energy  :  -136.8897380 Eh     change       -0.7246799E-05 Eh
   gradient norm :     0.0006999 Eh/α   predicted    -0.4750396E-05 ( -34.45%)
   displ. norm   :     0.0673527 α      lambda       -0.6338000E-05
   maximum displ.:     0.0449833 α      in ANC's #1, #4, #12, ...

........................................................................
.............................. CYCLE   27 ..............................
........................................................................

 iter      E             dE          RMSdq      gap      omega  full diag
   1   -139.1387183 -0.139139E+03  0.103E-02    2.38       0.0  T
   2   -139.1387184 -0.151311E-06  0.568E-03    2.38       1.8  T
   3   -139.1387183  0.113684E-06  0.182E-03    2.38       5.6  T
   4   -139.1387184 -0.145352E-06  0.667E-04    2.38      15.3  T
   5   -139.1387184 -0.133712E-07  0.266E-04    2.38      38.3  T
     SCC iter.                  ...        0 min,  0.490 sec
     gradient                   ...        0 min,  0.118 sec
 * total energy  :  -136.8897447 Eh     change       -0.6676959E-05 Eh
   gradient norm :     0.0006761 Eh/α   predicted    -0.3180665E-05 ( -52.36%)
   displ. norm   :     0.0637690 α      lambda       -0.5239777E-05
   maximum displ.:     0.0422533 α      in ANC's #1, #4, #12, ...

........................................................................
.............................. CYCLE   28 ..............................
........................................................................

 iter      E             dE          RMSdq      gap      omega  full diag
   1   -139.1385646 -0.139139E+03  0.855E-03    2.38       0.0  T
   2   -139.1385647 -0.875082E-07  0.479E-03    2.38       2.1  T
   3   -139.1385646  0.725301E-07  0.121E-03    2.38       8.4  T
   4   -139.1385647 -0.685344E-07  0.564E-04    2.38      18.1  T
   5   -139.1385647 -0.243583E-07  0.209E-04    2.38      48.9  T
     SCC iter.                  ...        0 min,  0.719 sec
     gradient                   ...        0 min,  0.122 sec
 * total energy  :  -136.8897511 Eh     change       -0.6334048E-05 Eh
   gradient norm :     0.0004692 Eh/α   predicted    -0.2627010E-05 ( -58.53%)
   displ. norm   :     0.0816406 α      lambda       -0.5675286E-05
   maximum displ.:     0.0534529 α      in ANC's #1, #4, #6, ...

........................................................................
.............................. CYCLE   29 ..............................
........................................................................

 iter      E             dE          RMSdq      gap      omega  full diag
   1   -139.1387075 -0.139139E+03  0.998E-03    2.38       0.0  T
   2   -139.1387076 -0.946760E-07  0.564E-03    2.38       1.8  T
   3   -139.1387074  0.122409E-06  0.144E-03    2.38       7.1  T
   4   -139.1387076 -0.137446E-06  0.576E-04    2.38      17.7  T
   5   -139.1387076 -0.179230E-07  0.197E-04    2.38      51.9  T
     SCC iter.                  ...        0 min,  0.728 sec
     gradient                   ...        0 min,  0.130 sec
 * total energy  :  -136.8897582 Eh     change       -0.7124996E-05 Eh
   gradient norm :     0.0003471 Eh/α   predicted    -0.2847984E-05 ( -60.03%)
   displ. norm   :     0.1082916 α      lambda       -0.6458290E-05
   maximum displ.:     0.0704804 α      in ANC's #1, #4, #6, ...

........................................................................
.............................. CYCLE   30 ..............................
........................................................................

 iter      E             dE          RMSdq      gap      omega  full diag
   1   -139.1388351 -0.139139E+03  0.124E-02    2.38       0.0  T
   2   -139.1388352 -0.967603E-07  0.708E-03    2.38       1.4  T
   3   -139.1388350  0.191764E-06  0.163E-03    2.38       6.3  T
   4   -139.1388352 -0.223458E-06  0.549E-04    2.38      18.6  T
   5   -139.1388352 -0.789240E-08  0.225E-04    2.38      45.4  T
     SCC iter.                  ...        0 min,  0.654 sec
     gradient                   ...        0 min,  0.121 sec
 * total energy  :  -136.8897666 Eh     change       -0.8381138E-05 Eh
   gradient norm :     0.0004780 Eh/α   predicted    -0.3247559E-05 ( -61.25%)
   displ. norm   :     0.1440803 α      lambda       -0.7978021E-05
   maximum displ.:     0.0943247 α      in ANC's #1, #4, #6, ...

........................................................................
.............................. CYCLE   31 ..............................
........................................................................

 iter      E             dE          RMSdq      gap      omega  full diag
   1   -139.1389068 -0.139139E+03  0.163E-02    2.38       0.0  T
   2   -139.1389069 -0.125573E-06  0.928E-03    2.38       1.1  T
   3   -139.1389066  0.316597E-06  0.201E-03    2.38       5.1  T
   4   -139.1389069 -0.369480E-06  0.640E-04    2.38      15.9  T
   5   -139.1389069 -0.726928E-08  0.268E-04    2.38      38.1  T
     SCC iter.                  ...        0 min,  0.677 sec
     gradient                   ...        0 min,  0.126 sec
 * total energy  :  -136.8897768 Eh     change       -0.1028369E-04 Eh
   gradient norm :     0.0005108 Eh/α   predicted    -0.4027495E-05 ( -60.84%)
   displ. norm   :     0.1728509 α      lambda       -0.8846402E-05
   maximum displ.:     0.1142025 α      in ANC's #1, #4, #6, ...

........................................................................
.............................. CYCLE   32 ..............................
........................................................................

 iter      E             dE          RMSdq      gap      omega  full diag
   1   -139.1390003 -0.139139E+03  0.194E-02    2.38       0.0  T
   2   -139.1390005 -0.161045E-06  0.110E-02    2.38       1.0  T
   3   -139.1390001  0.413984E-06  0.230E-03    2.38       4.4  T
   4   -139.1390005 -0.476072E-06  0.791E-04    2.38      12.9  T
   5   -139.1390006 -0.115602E-07  0.367E-04    2.38      27.8  T
     SCC iter.                  ...        0 min,  0.500 sec
     gradient                   ...        0 min,  0.122 sec
 * total energy  :  -136.8897881 Eh     change       -0.1123906E-04 Eh
   gradient norm :     0.0004306 Eh/α   predicted    -0.4484815E-05 ( -60.10%)
   displ. norm   :     0.1635566 α      lambda       -0.7846356E-05
   maximum displ.:     0.1096032 α      in ANC's #1, #4, #6, ...

........................................................................
.............................. CYCLE   33 ..............................
........................................................................

 iter      E             dE          RMSdq      gap      omega  full diag
   1   -139.1389469 -0.139139E+03  0.187E-02    2.38       0.0  T
   2   -139.1389471 -0.142138E-06  0.106E-02    2.38       1.0  T
   3   -139.1389467  0.350108E-06  0.217E-03    2.38       4.7  T
   4   -139.1389471 -0.388114E-06  0.853E-04    2.38      12.0  T
   5   -139.1389471 -0.216524E-07  0.389E-04    2.38      26.3  T
     SCC iter.                  ...        0 min,  0.694 sec
     gradient                   ...        0 min,  0.121 sec
 * total energy  :  -136.8897981 Eh     change       -0.1006279E-04 Eh
   gradient norm :     0.0003257 Eh/α   predicted    -0.3973173E-05 ( -60.52%)
   displ. norm   :     0.1315437 α      lambda       -0.6399687E-05
   maximum displ.:     0.0896133 α      in ANC's #1, #4, #6, ...

........................................................................
.............................. CYCLE   34 ..............................
........................................................................

 iter      E             dE          RMSdq      gap      omega  full diag
   1   -139.1389737 -0.139139E+03  0.157E-02    2.39       0.0  T
   2   -139.1389738 -0.101615E-06  0.890E-03    2.39       1.1  T
   3   -139.1389736  0.277731E-06  0.194E-03    2.39       5.3  T
   4   -139.1389739 -0.295877E-06  0.809E-04    2.39      12.6  T
   5   -139.1389739 -0.245491E-07  0.353E-04    2.39      28.9  T
     SCC iter.                  ...        0 min,  0.654 sec
     gradient                   ...        0 min,  0.127 sec
 * total energy  :  -136.8898065 Eh     change       -0.8317967E-05 Eh
   gradient norm :     0.0002543 Eh/α   predicted    -0.3228541E-05 ( -61.19%)
   displ. norm   :     0.1053073 α      lambda       -0.5321057E-05
   maximum displ.:     0.0722821 α      in ANC's #1, #4, #2, ...

........................................................................
.............................. CYCLE   35 ..............................
........................................................................

 iter      E             dE          RMSdq      gap      omega  full diag
   1   -139.1389832 -0.139139E+03  0.133E-02    2.39       0.0  T
   2   -139.1389832 -0.668520E-07  0.754E-03    2.39       1.4  T
   3   -139.1389830  0.197294E-06  0.166E-03    2.39       6.2  T
   4   -139.1389832 -0.205409E-06  0.687E-04    2.39      14.9  T
   5   -139.1389833 -0.204485E-07  0.277E-04    2.39      36.8  T
     SCC iter.                  ...        0 min,  0.651 sec
     gradient                   ...        0 min,  0.126 sec
 * total energy  :  -136.8898133 Eh     change       -0.6829080E-05 Eh
   gradient norm :     0.0002444 Eh/α   predicted    -0.2678094E-05 ( -60.78%)
   displ. norm   :     0.0904339 α      lambda       -0.4435605E-05
   maximum displ.:     0.0623167 α      in ANC's #1, #4, #2, ...

........................................................................
.............................. CYCLE   36 ..............................
........................................................................

 iter      E             dE          RMSdq      gap      omega  full diag
   1   -139.1389081 -0.139139E+03  0.118E-02    2.39       0.0  T
   2   -139.1389081 -0.487846E-07  0.674E-03    2.39       1.5  T
   3   -139.1389079  0.167675E-06  0.149E-03    2.39       6.8  T
   4   -139.1389081 -0.178011E-06  0.542E-04    2.39      18.8  T
   5   -139.1389081 -0.118837E-07  0.233E-04    2.39      43.8  T
     SCC iter.                  ...        0 min,  0.638 sec
     gradient                   ...        0 min,  0.125 sec
 * total energy  :  -136.8898189 Eh     change       -0.5599757E-05 Eh
   gradient norm :     0.0002205 Eh/α   predicted    -0.2229964E-05 ( -60.18%)
   displ. norm   :     0.0734444 α      lambda       -0.3369247E-05
   maximum displ.:     0.0508207 α      in ANC's #1, #4, #2, ...

........................................................................
.............................. CYCLE   37 ..............................
........................................................................

 iter      E             dE          RMSdq      gap      omega  full diag
   1   -139.1389201 -0.139139E+03  0.932E-03    2.39       0.0  T
   2   -139.1389201 -0.278557E-07  0.537E-03    2.39       1.9  T
   3   -139.1389200  0.940297E-07  0.114E-03    2.39       8.9  T
   4   -139.1389201 -0.101715E-06  0.380E-04    2.39      26.9  T
   5   -139.1389201 -0.496965E-08  0.172E-04    2.39      59.3  T
     SCC iter.                  ...        0 min,  0.675 sec
     gradient                   ...        0 min,  0.135 sec
 * total energy  :  -136.8898232 Eh     change       -0.4335130E-05 Eh
   gradient norm :     0.0002022 Eh/α   predicted    -0.1692280E-05 ( -60.96%)
   displ. norm   :     0.0622706 α      lambda       -0.2842183E-05
   maximum displ.:     0.0431542 α      in ANC's #1, #2, #9, ...

........................................................................
.............................. CYCLE   38 ..............................
........................................................................

 iter      E             dE          RMSdq      gap      omega  full diag
   1   -139.1389213 -0.139139E+03  0.729E-03    2.39       0.0  T
   2   -139.1389213 -0.173215E-07  0.422E-03    2.39       2.4  T
   3   -139.1389213  0.431161E-07  0.830E-04    2.39      12.3  T
   4   -139.1389214 -0.481774E-07  0.252E-04    2.39      40.5  T
     SCC iter.                  ...        0 min,  0.443 sec
     gradient                   ...        0 min,  0.122 sec
 * total energy  :  -136.8898270 Eh     change       -0.3795609E-05 Eh
   gradient norm :     0.0001758 Eh/α   predicted    -0.1425559E-05 ( -62.44%)
   displ. norm   :     0.0634696 α      lambda       -0.3069104E-05
   maximum displ.:     0.0434252 α      in ANC's #1, #2, #9, ...

........................................................................
.............................. CYCLE   39 ..............................
........................................................................

 iter      E             dE          RMSdq      gap      omega  full diag
   1   -139.1389054 -0.139139E+03  0.670E-03    2.39       0.0  T
   2   -139.1389054 -0.153685E-07  0.386E-03    2.39       2.6  T
   3   -139.1389054  0.641101E-07  0.900E-04    2.39      11.3  T
   4   -139.1389054 -0.683655E-07  0.290E-04    2.39      35.2  T
     SCC iter.                  ...        0 min,  0.508 sec
     gradient                   ...        0 min,  0.124 sec
 * total energy  :  -136.8898312 Eh     change       -0.4214756E-05 Eh
   gradient norm :     0.0001576 Eh/α   predicted    -0.1538744E-05 ( -63.49%)
   displ. norm   :     0.0788413 α      lambda       -0.3993482E-05
   maximum displ.:     0.0526796 α      in ANC's #1, #2, #9, ...

........................................................................
.............................. CYCLE   40 ..............................
........................................................................

 iter      E             dE          RMSdq      gap      omega  full diag
   1   -139.1389454 -0.139139E+03  0.745E-03    2.39       0.0  T
   2   -139.1389454 -0.229192E-07  0.426E-03    2.39       2.4  T
   3   -139.1389453  0.425166E-07  0.859E-04    2.39      11.9  T
   4   -139.1389454 -0.462981E-07  0.346E-04    2.39      29.5  T
     SCC iter.                  ...        0 min,  0.531 sec
     gradient                   ...        0 min,  0.122 sec
 * total energy  :  -136.8898367 Eh     change       -0.5500061E-05 Eh
   gradient norm :     0.0001752 Eh/α   predicted    -0.2003285E-05 ( -63.58%)
   displ. norm   :     0.1084537 α      lambda       -0.5423737E-05
   maximum displ.:     0.0711672 α      in ANC's #1, #2, #6, ...

........................................................................
.............................. CYCLE   41 ..............................
........................................................................

 iter      E             dE          RMSdq      gap      omega  full diag
   1   -139.1389380 -0.139139E+03  0.975E-03    2.39       0.0  T
   2   -139.1389380 -0.504745E-07  0.546E-03    2.39       1.9  T
   3   -139.1389379  0.750449E-07  0.123E-03    2.39       8.3  T
   4   -139.1389380 -0.844112E-07  0.528E-04    2.39      19.3  T
   5   -139.1389380 -0.104207E-07  0.169E-04    2.39      60.5  T
     SCC iter.                  ...        0 min,  0.581 sec
     gradient                   ...        0 min,  0.121 sec
 * total energy  :  -136.8898441 Eh     change       -0.7352554E-05 Eh
   gradient norm :     0.0001978 Eh/α   predicted    -0.2727491E-05 ( -62.90%)
   displ. norm   :     0.1358025 α      lambda       -0.6362301E-05
   maximum displ.:     0.0886430 α      in ANC's #1, #2, #6, ...

........................................................................
.............................. CYCLE   42 ..............................
........................................................................

 iter      E             dE          RMSdq      gap      omega  full diag
   1   -139.1389546 -0.139139E+03  0.114E-02    2.39       0.0  T
   2   -139.1389546 -0.820383E-07  0.641E-03    2.39       1.6  T
   3   -139.1389545  0.148758E-06  0.163E-03    2.39       6.3  T
   4   -139.1389547 -0.166840E-06  0.654E-04    2.39      15.6  T
   5   -139.1389547 -0.139347E-07  0.274E-04    2.39      37.2  T
     SCC iter.                  ...        0 min,  0.777 sec
     gradient                   ...        0 min,  0.128 sec
 * total energy  :  -136.8898525 Eh     change       -0.8423298E-05 Eh
   gradient norm :     0.0002392 Eh/α   predicted    -0.3208673E-05 ( -61.91%)
   displ. norm   :     0.1371321 α      lambda       -0.5928912E-05
   maximum displ.:     0.0896893 α      in ANC's #1, #2, #6, ...
 * RMSD in coord.:     0.1677333 α      energy gain  -0.1993786E-03 Eh

generating ANC from exact Hessian ...
Using Lindh-Hessian (1995)
 Shifting diagonal of input Hessian by    9.9348782685533682E-003
 Lowest  eigenvalues of input Hessian
    0.000000    0.000000    0.000000    0.000000    0.000000    0.000000
    0.010000    0.010043    0.010190    0.010278    0.010328    0.010397
    0.010416    0.010518    0.010580    0.010860    0.010930    0.011060
 Highest eigenvalues
    2.015742    2.027950    2.028243    2.075205    2.114970    2.125791


........................................................................
.............................. CYCLE   43 ..............................
........................................................................

 iter      E             dE          RMSdq      gap      omega  full diag
   1   -139.1389669 -0.139139E+03  0.113E-02    2.39       0.0  T
   2   -139.1389670 -0.962423E-07  0.617E-03    2.39       1.7  T
   3   -139.1389669  0.124617E-06  0.163E-03    2.39       6.3  T
   4   -139.1389670 -0.143724E-06  0.714E-04    2.39      14.3  T
   5   -139.1389670 -0.182509E-07  0.204E-04    2.39      49.9  T
     SCC iter.                  ...        0 min,  0.696 sec
     gradient                   ...        0 min,  0.122 sec
 * total energy  :  -136.8898604 Eh     change       -0.7852442E-05 Eh
   gradient norm :     0.0002361 Eh/α   predicted     0.0000000E+00 (-100.00%)
   displ. norm   :     0.0178095 α      lambda       -0.7727960E-07
   maximum displ.:     0.0100163 α      in ANC's #1, #2, #13, ...

........................................................................
.............................. CYCLE   44 ..............................
........................................................................

 iter      E             dE          RMSdq      gap      omega  full diag
   1   -139.1390229 -0.139139E+03  0.304E-03    2.39       0.0  T
   2   -139.1390229 -0.128693E-07  0.164E-03    2.39       6.2  T
   3   -139.1390229  0.715704E-08  0.464E-04    2.39      22.0  T
   4   -139.1390229 -0.414616E-08  0.276E-04    2.39      36.9  T
     SCC iter.                  ...        0 min,  0.490 sec
     gradient                   ...        0 min,  0.122 sec
 * total energy  :  -136.8898625 Eh     change       -0.2139411E-05 Eh
   gradient norm :     0.0002107 Eh/α   predicted    -0.8419454E-06 ( -60.65%)
   displ. norm   :     0.0680237 α      lambda       -0.5345109E-05
   maximum displ.:     0.0349299 α      in ANC's #1, #2, #5, ...

........................................................................
.............................. CYCLE   45 ..............................
........................................................................

 iter      E             dE          RMSdq      gap      omega  full diag
   1   -139.1390421 -0.139139E+03  0.109E-02    2.39       0.0  T
   2   -139.1390422 -0.927723E-07  0.600E-03    2.39       1.7  T
   3   -139.1390421  0.683650E-07  0.138E-03    2.39       7.4  T
   4   -139.1390422 -0.735982E-07  0.610E-04    2.39      16.7  T
   5   -139.1390422 -0.194452E-07  0.205E-04    2.39      49.8  T
     SCC iter.                  ...        0 min,  0.667 sec
     gradient                   ...        0 min,  0.122 sec
 * total energy  :  -136.8898676 Eh     change       -0.5089337E-05 Eh
   gradient norm :     0.0004728 Eh/α   predicted    -0.2681481E-05 ( -47.31%)
   displ. norm   :     0.0820911 α      lambda       -0.5131299E-05
   maximum displ.:     0.0414342 α      in ANC's #1, #2, #13, ...

........................................................................
.............................. CYCLE   46 ..............................
........................................................................

 iter      E             dE          RMSdq      gap      omega  full diag
   1   -139.1387949 -0.139139E+03  0.147E-02    2.39       0.0  T
   2   -139.1387953 -0.388632E-06  0.743E-03    2.39       1.4  T
   3   -139.1387953 -0.227396E-08  0.206E-03    2.39       5.0  T
   4   -139.1387953  0.181629E-07  0.107E-03    2.39       9.5  T
   5   -139.1387953 -0.573774E-07  0.442E-04    2.39      23.1  T
   6   -139.1387953 -0.981845E-08  0.229E-04    2.39      44.6  T
     SCC iter.                  ...        0 min,  0.849 sec
     gradient                   ...        0 min,  0.125 sec
 * total energy  :  -136.8898699 Eh     change       -0.2320136E-05 Eh
   gradient norm :     0.0005899 Eh/α   predicted    -0.2573759E-05 (  10.93%)
   displ. norm   :     0.0220186 α      lambda       -0.2756347E-05
   maximum displ.:     0.0125053 α      in ANC's #1, #2, #10, ...

........................................................................
.............................. CYCLE   47 ..............................
........................................................................

 iter      E             dE          RMSdq      gap      omega  full diag
   1   -139.1388291 -0.139139E+03  0.445E-03    2.39       0.0  T
   2   -139.1388291 -0.581196E-07  0.228E-03    2.39       4.5  T
   3   -139.1388291  0.164581E-07  0.854E-04    2.39      11.9  T
   4   -139.1388291 -0.123665E-07  0.475E-04    2.39      21.5  T
     SCC iter.                  ...        0 min,  0.438 sec
     gradient                   ...        0 min,  0.122 sec
 * total energy  :  -136.8898729 Eh     change       -0.2972064E-05 Eh
   gradient norm :     0.0002714 Eh/α   predicted    -0.1382728E-05 ( -53.48%)
   displ. norm   :     0.0485500 α      lambda       -0.3651704E-05
   maximum displ.:     0.0277709 α      in ANC's #2, #1, #10, ...

........................................................................
.............................. CYCLE   48 ..............................
........................................................................

 iter      E             dE          RMSdq      gap      omega  full diag
   1   -139.1390018 -0.139139E+03  0.702E-03    2.39       0.0  T
   2   -139.1390018 -0.799864E-07  0.372E-03    2.39       2.7  T
   3   -139.1390018  0.863699E-07  0.137E-03    2.39       7.4  T
   4   -139.1390019 -0.909821E-07  0.629E-04    2.39      16.2  T
   5   -139.1390019 -0.190895E-07  0.282E-04    2.39      36.2  T
     SCC iter.                  ...        0 min,  0.784 sec
     gradient                   ...        0 min,  0.122 sec
 * total energy  :  -136.8898762 Eh     change       -0.3361175E-05 Eh
   gradient norm :     0.0004711 Eh/α   predicted    -0.1830096E-05 ( -45.55%)
   displ. norm   :     0.0673785 α      lambda       -0.3779221E-05
   maximum displ.:     0.0389927 α      in ANC's #2, #1, #10, ...

........................................................................
.............................. CYCLE   49 ..............................
........................................................................

 iter      E             dE          RMSdq      gap      omega  full diag
   1   -139.1391553 -0.139139E+03  0.880E-03    2.39       0.0  T
   2   -139.1391554 -0.912121E-07  0.473E-03    2.39       2.2  T
   3   -139.1391554  0.634993E-07  0.137E-03    2.39       7.5  T
   4   -139.1391554 -0.642896E-07  0.642E-04    2.39      15.9  T
   5   -139.1391554 -0.171095E-07  0.314E-04    2.39      32.5  T
     SCC iter.                  ...        0 min,  0.697 sec
     gradient                   ...        0 min,  0.126 sec
 * total energy  :  -136.8898802 Eh     change       -0.3952631E-05 Eh
   gradient norm :     0.0005667 Eh/α   predicted    -0.1896487E-05 ( -52.02%)
   displ. norm   :     0.0823772 α      lambda       -0.3786746E-05
   maximum displ.:     0.0505641 α      in ANC's #2, #1, #10, ...

........................................................................
.............................. CYCLE   50 ..............................
........................................................................

 iter      E             dE          RMSdq      gap      omega  full diag
   1   -139.1391261 -0.139139E+03  0.106E-02    2.39       0.0  T
   2   -139.1391262 -0.957808E-07  0.561E-03    2.39       1.8  T
   3   -139.1391261  0.523742E-07  0.139E-03    2.39       7.3  T
   4   -139.1391262 -0.186961E-07  0.864E-04    2.39      11.8  T
   5   -139.1391262 -0.545838E-07  0.232E-04    2.39      44.0  T
     SCC iter.                  ...        0 min,  0.544 sec
     gradient                   ...        0 min,  0.148 sec
 * total energy  :  -136.8898850 Eh     change       -0.4769409E-05 Eh
   gradient norm :     0.0004685 Eh/α   predicted    -0.1902454E-05 ( -60.11%)
   displ. norm   :     0.0875315 α      lambda       -0.4055076E-05
   maximum displ.:     0.0547099 α      in ANC's #2, #1, #10, ...

........................................................................
.............................. CYCLE   51 ..............................
........................................................................

 iter      E             dE          RMSdq      gap      omega  full diag
   1   -139.1390918 -0.139139E+03  0.117E-02    2.39       0.0  T
   2   -139.1390919 -0.119590E-06  0.616E-03    2.39       1.7  T
   3   -139.1390919  0.230702E-07  0.144E-03    2.39       7.1  T
   4   -139.1390919 -0.248056E-08  0.825E-04    2.39      12.4  T
   5   -139.1390919 -0.429275E-07  0.235E-04    2.39      43.5  T
     SCC iter.                  ...        0 min,  0.655 sec
     gradient                   ...        0 min,  0.125 sec
 * total energy  :  -136.8898900 Eh     change       -0.5072862E-05 Eh
   gradient norm :     0.0002623 Eh/α   predicted    -0.2035662E-05 ( -59.87%)
   displ. norm   :     0.0929714 α      lambda       -0.3768023E-05
   maximum displ.:     0.0594807 α      in ANC's #2, #1, #10, ...

........................................................................
.............................. CYCLE   52 ..............................
........................................................................

 iter      E             dE          RMSdq      gap      omega  full diag
   1   -139.1390459 -0.139139E+03  0.116E-02    2.39       0.0  T
   2   -139.1390460 -0.866245E-07  0.641E-03    2.39       1.6  T
   3   -139.1390459  0.352557E-07  0.131E-03    2.39       7.8  T
   4   -139.1390459 -0.289029E-07  0.692E-04    2.39      14.7  T
   5   -139.1390460 -0.278547E-07  0.179E-04    2.39      56.9  T
     SCC iter.                  ...        0 min,  0.645 sec
     gradient                   ...        0 min,  0.126 sec
 * total energy  :  -136.8898950 Eh     change       -0.4924455E-05 Eh
   gradient norm :     0.0003325 Eh/α   predicted    -0.1892530E-05 ( -61.57%)
   displ. norm   :     0.0918835 α      lambda       -0.3666466E-05
   maximum displ.:     0.0609306 α      in ANC's #2, #1, #4, ...

........................................................................
.............................. CYCLE   53 ..............................
........................................................................

 iter      E             dE          RMSdq      gap      omega  full diag
   1   -139.1389926 -0.139139E+03  0.107E-02    2.39       0.0  T
   2   -139.1389926 -0.599911E-07  0.599E-03    2.39       1.7  T
   3   -139.1389926  0.390375E-07  0.116E-03    2.39       8.8  T
   4   -139.1389926 -0.399197E-07  0.565E-04    2.39      18.1  T
   5   -139.1389927 -0.164861E-07  0.146E-04    2.39      69.8  T
     SCC iter.                  ...        0 min,  0.501 sec
     gradient                   ...        0 min,  0.128 sec
 * total energy  :  -136.8899000 Eh     change       -0.5039817E-05 Eh
   gradient norm :     0.0003787 Eh/α   predicted    -0.1844512E-05 ( -63.40%)
   displ. norm   :     0.1038348 α      lambda       -0.4327601E-05
   maximum displ.:     0.0708232 α      in ANC's #2, #1, #6, ...

........................................................................
.............................. CYCLE   54 ..............................
........................................................................

 iter      E             dE          RMSdq      gap      omega  full diag
   1   -139.1389794 -0.139139E+03  0.115E-02    2.39       0.0  T
   2   -139.1389794 -0.647348E-07  0.651E-03    2.39       1.6  T
   3   -139.1389794  0.695777E-07  0.129E-03    2.39       7.9  T
   4   -139.1389794 -0.782951E-07  0.542E-04    2.39      18.8  T
   5   -139.1389794 -0.130365E-07  0.146E-04    2.39      69.8  T
     SCC iter.                  ...        0 min,  0.693 sec
     gradient                   ...        0 min,  0.123 sec
 * total energy  :  -136.8899059 Eh     change       -0.5866216E-05 Eh
   gradient norm :     0.0003581 Eh/α   predicted    -0.2176275E-05 ( -62.90%)
   displ. norm   :     0.1313030 α      lambda       -0.5225594E-05
   maximum displ.:     0.0909506 α      in ANC's #2, #1, #6, ...

........................................................................
.............................. CYCLE   55 ..............................
........................................................................

 iter      E             dE          RMSdq      gap      omega  full diag
   1   -139.1389468 -0.139139E+03  0.139E-02    2.39       0.0  T
   2   -139.1389469 -0.104380E-06  0.787E-03    2.38       1.3  T
   3   -139.1389468  0.960513E-07  0.160E-03    2.38       6.4  T
   4   -139.1389470 -0.105601E-06  0.703E-04    2.38      14.5  T
   5   -139.1389470 -0.223629E-07  0.197E-04    2.38      51.7  T
     SCC iter.                  ...        0 min,  0.506 sec
     gradient                   ...        0 min,  0.121 sec
 * total energy  :  -136.8899128 Eh     change       -0.6939672E-05 Eh
   gradient norm :     0.0002993 Eh/α   predicted    -0.2633647E-05 ( -62.05%)
   displ. norm   :     0.1408387 α      lambda       -0.5138858E-05
   maximum displ.:     0.0982594 α      in ANC's #2, #1, #6, ...

........................................................................
.............................. CYCLE   56 ..............................
........................................................................

 iter      E             dE          RMSdq      gap      omega  full diag
   1   -139.1389131 -0.139139E+03  0.145E-02    2.38       0.0  T
   2   -139.1389133 -0.114727E-06  0.818E-03    2.38       1.2  T
   3   -139.1389132  0.113393E-06  0.171E-03    2.38       6.0  T
   4   -139.1389133 -0.127474E-06  0.732E-04    2.38      14.0  T
   5   -139.1389133 -0.232838E-07  0.182E-04    2.38      55.9  T
     SCC iter.                  ...        0 min,  0.658 sec
     gradient                   ...        0 min,  0.126 sec
 * total energy  :  -136.8899197 Eh     change       -0.6914744E-05 Eh
   gradient norm :     0.0002610 Eh/α   predicted    -0.2595878E-05 ( -62.46%)
   displ. norm   :     0.1344773 α      lambda       -0.4776441E-05
   maximum displ.:     0.0943060 α      in ANC's #2, #1, #6, ...

........................................................................
.............................. CYCLE   57 ..............................
........................................................................

 iter      E             dE          RMSdq      gap      omega  full diag
   1   -139.1389632 -0.139139E+03  0.134E-02    2.38       0.0  T
   2   -139.1389633 -0.997363E-07  0.750E-03    2.38       1.4  T
   3   -139.1389633  0.806412E-07  0.155E-03    2.38       6.6  T
   4   -139.1389634 -0.876507E-07  0.715E-04    2.38      14.3  T
   5   -139.1389634 -0.239235E-07  0.158E-04    2.38      64.7  T
     SCC iter.                  ...        0 min,  0.700 sec
     gradient                   ...        0 min,  0.122 sec
 * total energy  :  -136.8899263 Eh     change       -0.6613301E-05 Eh
   gradient norm :     0.0002671 Eh/α   predicted    -0.2409483E-05 ( -63.57%)
   displ. norm   :     0.1351523 α      lambda       -0.4974136E-05
   maximum displ.:     0.0948600 α      in ANC's #2, #1, #6, ...

........................................................................
.............................. CYCLE   58 ..............................
........................................................................

 iter      E             dE          RMSdq      gap      omega  full diag
   1   -139.1389859 -0.139139E+03  0.130E-02    2.38       0.0  T
   2   -139.1389860 -0.937881E-07  0.728E-03    2.38       1.4  T
   3   -139.1389859  0.753462E-07  0.151E-03    2.38       6.8  T
   4   -139.1389860 -0.809071E-07  0.706E-04    2.38      14.5  T
   5   -139.1389860 -0.230109E-07  0.174E-04    2.38      58.7  T
     SCC iter.                  ...        0 min,  0.703 sec
     gradient                   ...        0 min,  0.122 sec
 * total energy  :  -136.8899333 Eh     change       -0.6945778E-05 Eh
   gradient norm :     0.0002669 Eh/α   predicted    -0.2510072E-05 ( -63.86%)
   displ. norm   :     0.1508517 α      lambda       -0.5645714E-05
   maximum displ.:     0.1056602 α      in ANC's #2, #1, #6, ...

........................................................................
.............................. CYCLE   59 ..............................
........................................................................

 iter      E             dE          RMSdq      gap      omega  full diag
   1   -139.1390026 -0.139139E+03  0.140E-02    2.38       0.0  T
   2   -139.1390028 -0.108792E-06  0.781E-03    2.38       1.3  T
   3   -139.1390027  0.839588E-07  0.162E-03    2.39       6.3  T
   4   -139.1390028 -0.906597E-07  0.764E-04    2.38      13.4  T
   5   -139.1390028 -0.276654E-07  0.155E-04    2.38      66.0  T
     SCC iter.                  ...        0 min,  0.592 sec
     gradient                   ...        0 min,  0.129 sec
 * total energy  :  -136.8899410 Eh     change       -0.7750607E-05 Eh
   gradient norm :     0.0002438 Eh/α   predicted    -0.2853973E-05 ( -63.18%)
   displ. norm   :     0.1700436 α      lambda       -0.6021850E-05
   maximum displ.:     0.1192020 α      in ANC's #2, #1, #6, ...

........................................................................
.............................. CYCLE   60 ..............................
........................................................................

 iter      E             dE          RMSdq      gap      omega  full diag
   1   -139.1390327 -0.139139E+03  0.151E-02    2.39       0.0  T
   2   -139.1390328 -0.129949E-06  0.842E-03    2.39       1.2  T
   3   -139.1390327  0.958281E-07  0.175E-03    2.39       5.8  T
   4   -139.1390328 -0.104340E-06  0.832E-04    2.39      12.3  T
   5   -139.1390328 -0.316927E-07  0.182E-04    2.39      56.1  T
     SCC iter.                  ...        0 min,  0.587 sec
     gradient                   ...        0 min,  0.128 sec
 * total energy  :  -136.8899492 Eh     change       -0.8142872E-05 Eh
   gradient norm :     0.0002204 Eh/α   predicted    -0.3052593E-05 ( -62.51%)
   displ. norm   :     0.1693850 α      lambda       -0.5485504E-05
   maximum displ.:     0.1190042 α      in ANC's #2, #1, #6, ...

........................................................................
.............................. CYCLE   61 ..............................
........................................................................

 iter      E             dE          RMSdq      gap      omega  full diag
   1   -139.1390131 -0.139139E+03  0.142E-02    2.39       0.0  T
   2   -139.1390132 -0.120760E-06  0.794E-03    2.39       1.3  T
   3   -139.1390131  0.906000E-07  0.170E-03    2.39       6.0  T
   4   -139.1390132 -0.101095E-06  0.785E-04    2.39      13.0  T
   5   -139.1390132 -0.272368E-07  0.170E-04    2.39      60.0  T
     SCC iter.                  ...        0 min,  0.801 sec
[...]
    63   1 H        0.926     0.048     2.342     2.393
    64   1 H        0.926     0.049     2.326     2.385
    65   1 H        0.926     0.045     2.382     2.413
    66   1 H        0.926     0.035     2.515     2.480
    67   1 H        0.924     0.056     2.249     2.345
    68   1 H        0.925     0.070     2.084     2.258
    69   1 H        0.925     0.076     2.018     2.221
    70   1 H        0.926     0.048     2.346     2.395
    71   1 H        0.926     0.053     2.283     2.363
    72   1 H        0.926     0.057     2.236     2.339
    73   1 H        0.926     0.056     2.243     2.342
    74   1 H        0.926     0.051     2.309     2.376
    75   1 H        0.924     0.073     2.054     2.241
    76   1 H        0.924     0.044     2.401     2.423
    77   1 H        0.926     0.036     2.496     2.471
    78   1 H        0.926     0.051     2.309     2.376
    79   1 H        0.926     0.051     2.303     2.373
    80   1 H        0.926     0.046     2.375     2.410
    81   1 H        0.926     0.035     2.518     2.482
    82   1 H        0.924     0.035     2.512     2.479
    83   1 H        0.924     0.042     2.416     2.431
    84   1 H        0.924     0.042     2.419     2.432
    85   1 H        0.924     0.049     2.330     2.387
    86   1 H        0.924     0.037     2.494     2.470
    87   1 H        0.924     0.036     2.507     2.476
    88   1 H        0.924     0.048     2.343     2.394
    89   1 H        0.924     0.033     2.549     2.497
    90   1 H        0.924     0.038     2.474     2.460
    91   1 H        0.924     0.038     2.474     2.460
    92   1 H        0.924     0.049     2.335     2.390
    93   1 H        0.924     0.025     2.659     2.550
    94   1 H        0.924     0.035     2.514     2.480
    95   1 H        0.925     0.044     2.392     2.419
    96   1 H        0.925     0.040     2.453     2.449

 Mol. C6AA /au·bohr⁶  :     122187.658972
 Mol. C8AA /au·bohr⁸  :    3247887.147406
 Mol. α(0) /au        :        556.563657


Wiberg/Mayer (AO) data.
largest (>0.10) Wiberg bond orders for each atom

 ---------------------------------------------------------------------------
     #   Z sym  total        # sym  WBO       # sym  WBO       # sym  WBO
 ---------------------------------------------------------------------------
     1   6 C    3.963 --    52 H    0.977     2 N    0.974    53 H    0.970
                            54 H    0.961
     2   7 N    3.409 --    25 P    1.177     3 C    0.983     1 C    0.974
     3   6 C    3.948 --    12 C    1.449     4 C    1.277     2 N    0.983
     4   6 C    3.985 --     5 C    1.555     3 C    1.277    55 H    0.963
     5   6 C    3.985 --     4 C    1.555     6 C    1.274    56 H    0.966
                            12 C    0.106
     6   6 C    3.988 --     7 C    1.281     5 C    1.274    11 C    1.254
     7   6 C    3.989 --     8 C    1.555     6 C    1.281    57 H    0.967
                            10 C    0.117
     8   6 C    3.985 --     7 C    1.555     9 C    1.323    58 H    0.969
     9   6 C    3.990 --    10 C    1.553     8 C    1.323    59 H    0.970
    10   6 C    3.989 --     9 C    1.553    11 C    1.284    60 H    0.965
                             7 C    0.117
    11   6 C    3.987 --    10 C    1.284     6 C    1.254    12 C    1.234
    12   6 C    3.985 --     3 C    1.449    11 C    1.234    13 C    1.029
                             5 C    0.106
    13   6 C    3.985 --    14 C    1.457    22 C    1.231    12 C    1.029
                            16 C    0.105
    14   6 C    3.948 --    13 C    1.457    15 C    1.283    23 N    0.972
    15   6 C    3.988 --    16 C    1.558    14 C    1.283    61 H    0.963
    16   6 C    3.985 --    15 C    1.558    17 C    1.273    62 H    0.966
                            13 C    0.105
    17   6 C    3.988 --    18 C    1.280    16 C    1.273    22 C    1.255
    18   6 C    3.988 --    19 C    1.554    17 C    1.280    63 H    0.967
                            21 C    0.117
    19   6 C    3.986 --    18 C    1.554    20 C    1.323    64 H    0.969
    20   6 C    3.990 --    21 C    1.552    19 C    1.323    65 H    0.970
    21   6 C    3.989 --    20 C    1.552    22 C    1.283    66 H    0.965
                            18 C    0.117
    22   6 C    3.987 --    21 C    1.283    17 C    1.255    13 C    1.231
    23   7 N    3.404 --    25 P    1.203    14 C    0.972    24 C    0.968
    24   6 C    3.959 --    69 H    0.977    67 H    0.972    23 N    0.968
                            68 H    0.961
    25  15 P    5.094 --    34 N    1.243    23 N    1.203     2 N    1.177
                            26 S    1.002
    26  16 S    2.474 --    27 S    1.159    25 P    1.002
    27  16 S    2.358 --    26 S    1.159    28 C    0.980
    28   6 C    3.954 --    33 C    1.404    29 C    1.403    27 S    0.980
                            31 C    0.103
    29   6 C    3.989 --    30 C    1.439    28 C    1.403    70 H    0.964
                            32 C    0.109
    30   6 C    3.991 --    29 C    1.439    31 C    1.439    71 H    0.968
                            33 C    0.110
    31   6 C    3.982 --    30 C    1.439    32 C    1.433    72 H    0.969
                            28 C    0.103
    32   6 C    3.990 --    33 C    1.444    31 C    1.433    73 H    0.968
                            29 C    0.109
    33   6 C    3.989 --    32 C    1.444    28 C    1.404    74 H    0.966
                            30 C    0.110
    34   7 N    3.369 --    25 P    1.243    35 C    0.946    42 C    0.903
    35   6 C    3.960 --    36 C    0.998    76 H    0.961    34 N    0.946
                            75 H    0.944
    36   6 C    3.985 --    41 C    1.410    37 C    1.396    35 C    0.998
                            39 C    0.108
    37   6 C    3.990 --    38 C    1.447    36 C    1.396    77 H    0.967
                            40 C    0.109
    38   6 C    3.990 --    37 C    1.447    39 C    1.436    78 H    0.969
                            41 C    0.109
    39   6 C    3.987 --    40 C    1.438    38 C    1.436    79 H    0.970
                            36 C    0.108
    40   6 C    3.990 --    41 C    1.444    39 C    1.438    80 H    0.970
                            37 C    0.109
    41   6 C    3.989 --    40 C    1.444    36 C    1.410    81 H    0.962
                            38 C    0.109
    42   6 C    3.945 --    51 C    0.988    50 C    0.984    43 C    0.983
                            34 N    0.903
    43   6 C    3.991 --    44 C    0.989    42 C    0.983    82 H    0.969
                            83 H    0.967
    44   6 C    3.993 --    45 C    0.999    49 C    0.999    43 C    0.989
                            84 H    0.966
    45   6 C    3.995 --    44 C    0.999    46 C    0.998    86 H    0.975
                            85 H    0.973
    46   6 C    3.994 --    47 C    0.999    45 C    0.998    51 C    0.988
                            87 H    0.967
    47   6 C    3.996 --    46 C    0.999    48 C    0.999    89 H    0.974
                            88 H    0.974
    48   6 C    3.994 --    47 C    0.999    49 C    0.998    50 C    0.991
                            90 H    0.967
    49   6 C    3.996 --    44 C    0.999    48 C    0.998    91 H    0.975
                            92 H    0.974
    50   6 C    3.995 --    48 C    0.991    42 C    0.984    94 H    0.970
                            93 H    0.965
    51   6 C    3.994 --    42 C    0.988    46 C    0.988    95 H    0.963
                            96 H    0.941
    52   1 H    0.995 --     1 C    0.977
    53   1 H    0.997 --     1 C    0.970
    54   1 H    0.996 --     1 C    0.961
    55   1 H    0.998 --     4 C    0.963
    56   1 H    0.996 --     5 C    0.966
    57   1 H    0.997 --     7 C    0.967
    58   1 H    0.997 --     8 C    0.969
    59   1 H    0.997 --     9 C    0.970
    60   1 H    0.998 --    10 C    0.965
    61   1 H    0.997 --    15 C    0.963
    62   1 H    0.996 --    16 C    0.966
    63   1 H    0.997 --    18 C    0.967
    64   1 H    0.997 --    19 C    0.969
    65   1 H    0.997 --    20 C    0.970
    66   1 H    0.998 --    21 C    0.965
    67   1 H    0.997 --    24 C    0.972
    68   1 H    0.994 --    24 C    0.961
    69   1 H    0.994 --    24 C    0.977
    70   1 H    0.998 --    29 C    0.964
    71   1 H    0.997 --    30 C    0.968
    72   1 H    0.996 --    31 C    0.969
    73   1 H    0.997 --    32 C    0.968
    74   1 H    0.997 --    33 C    0.966
    75   1 H    0.994 --    35 C    0.944
    76   1 H    0.997 --    35 C    0.961
    77   1 H    0.999 --    37 C    0.967
    78   1 H    0.997 --    38 C    0.969
    79   1 H    0.997 --    39 C    0.970
    80   1 H    0.998 --    40 C    0.970
    81   1 H    0.999 --    41 C    0.962
    82   1 H    0.999 --    43 C    0.969
    83   1 H    0.998 --    43 C    0.967
    84   1 H    0.997 --    44 C    0.966
    85   1 H    0.996 --    45 C    0.973
    86   1 H    0.999 --    45 C    0.975
    87   1 H    0.998 --    46 C    0.967
    88   1 H    0.997 --    47 C    0.974
    89   1 H    0.999 --    47 C    0.974
    90   1 H    0.998 --    48 C    0.967
    91   1 H    0.999 --    49 C    0.975
    92   1 H    0.997 --    49 C    0.974
    93   1 H    0.999 --    50 C    0.965
    94   1 H    0.999 --    50 C    0.970
    95   1 H    0.998 --    51 C    0.963
    96   1 H    0.998 --    51 C    0.941
 ---------------------------------------------------------------------------

Topologies differ in total number of bonds
Writing topology from bond orders to xtbtopo.mol

molecular dipole:
                 x           y           z       tot (Debye)
 q only:        0.188       0.420       0.141
   full:        0.190       0.692       0.062       1.830
molecular quadrupole (traceless):
                xx          xy          yy          xz          yz          zz
 q only:       13.915      -4.115      -5.547       2.603       6.100      -8.368
  q+dip:        9.355      -1.148      -4.145       5.118       0.943      -5.211
   full:       12.155      -3.307      -3.512       2.367       3.532      -8.643

           -------------------------------------------------
          |                Geometry Summary                 |
           -------------------------------------------------

      molecular mass/u    :      722.9638957
   center of mass at/Å    :       -0.2867011       0.1260802       0.3291983
  moments of inertia/u·Å² :        0.7116430E+04   0.8564641E+04   0.1180204E+05
rotational constants/cm⁻¹ :        0.2368833E-02   0.1968282E-02   0.1428366E-02

 * 101 selected distances

     #   Z          #   Z                                           value/Å
     1   6 C        2   7 N                                       1.4588899
     2   7 N        3   6 C                                       1.4250691
     3   6 C        4   6 C                                       1.4094648
     4   6 C        5   6 C                                       1.3646955
     5   6 C        6   6 C                                       1.4094045
     6   6 C        7   6 C                                       1.4099231
     7   6 C        8   6 C                                       1.3664531
     8   6 C        9   6 C                                       1.4029661
     9   6 C       10   6 C                                       1.3673621
     6   6 C       11   6 C                                       1.4192701
    10   6 C       11   6 C                                       1.4113242
     3   6 C       12   6 C                                       1.3774547
    11   6 C       12   6 C                                       1.4243708
    13   6 C       14   6 C                                       1.3766566
    14   6 C       15   6 C                                       1.4084624
    15   6 C       16   6 C                                       1.3639836
    16   6 C       17   6 C                                       1.4091197
    17   6 C       18   6 C                                       1.4099980
    18   6 C       19   6 C                                       1.3664918
    19   6 C       20   6 C                                       1.4028289
    20   6 C       21   6 C                                       1.3676022
    13   6 C       22   6 C                                       1.4252288
    17   6 C       22   6 C                                       1.4189162
    21   6 C       22   6 C                                       1.4123129
    14   6 C       23   7 N                                       1.4343480
    23   7 N       24   6 C                                       1.4617517
     2   7 N       25  15 P                                       1.6733418
    23   7 N       25  15 P                                       1.6624088
    25  15 P       26  16 S                                       2.1293920 (max)
    26  16 S       27  16 S                                       2.0510515
    28   6 C       29   6 C                                       1.3860149
    29   6 C       30   6 C                                       1.3843544
    30   6 C       31   6 C                                       1.3856686
    31   6 C       32   6 C                                       1.3863442
    28   6 C       33   6 C                                       1.3859556
    32   6 C       33   6 C                                       1.3835043
    25  15 P       34   7 N                                       1.6585958
    34   7 N       35   6 C                                       1.4766659
    36   6 C       37   6 C                                       1.3914749
    37   6 C       38   6 C                                       1.3827190
    38   6 C       39   6 C                                       1.3845873
    39   6 C       40   6 C                                       1.3842002
    36   6 C       41   6 C                                       1.3883173
    40   6 C       41   6 C                                       1.3836866
    42   6 C       43   6 C                                       1.5328181
    43   6 C       44   6 C                                       1.5323379
    44   6 C       45   6 C                                       1.5264863
    45   6 C       46   6 C                                       1.5264459
    46   6 C       47   6 C                                       1.5255358
    47   6 C       48   6 C                                       1.5262889
    44   6 C       49   6 C                                       1.5271563
    48   6 C       49   6 C                                       1.5271409
    42   6 C       50   6 C                                       1.5323355
    48   6 C       50   6 C                                       1.5295459
    42   6 C       51   6 C                                       1.5277052
    46   6 C       51   6 C                                       1.5325241
     1   6 C       52   1 H                                       1.0897483
     1   6 C       53   1 H                                       1.0931658
     1   6 C       54   1 H                                       1.0900926
     4   6 C       55   1 H                                       1.0781374
     5   6 C       56   1 H                                       1.0795966
     7   6 C       57   1 H                                       1.0798433
     8   6 C       58   1 H                                       1.0790018
     9   6 C       59   1 H                                       1.0792363
    10   6 C       60   1 H                                       1.0791061
    15   6 C       61   1 H                                       1.0772014 (min)
    16   6 C       62   1 H                                       1.0789399
    18   6 C       63   1 H                                       1.0796161
    19   6 C       64   1 H                                       1.0789491
    20   6 C       65   1 H                                       1.0794047
    21   6 C       66   1 H                                       1.0794368
    24   6 C       67   1 H                                       1.0933835
    24   6 C       68   1 H                                       1.0864033
    24   6 C       69   1 H                                       1.0890832
    29   6 C       70   1 H                                       1.0793702
    30   6 C       71   1 H                                       1.0790939
    31   6 C       72   1 H                                       1.0789067
    32   6 C       73   1 H                                       1.0789663
    33   6 C       74   1 H                                       1.0802421
    35   6 C       75   1 H                                       1.0903076
    35   6 C       76   1 H                                       1.0956204
    37   6 C       77   1 H                                       1.0802075
    38   6 C       78   1 H                                       1.0789102
    39   6 C       79   1 H                                       1.0788032
    40   6 C       80   1 H                                       1.0795596
    41   6 C       81   1 H                                       1.0781980
    43   6 C       82   1 H                                       1.0920572
    43   6 C       83   1 H                                       1.0902163
    44   6 C       84   1 H                                       1.0941705
    45   6 C       85   1 H                                       1.0904475
    45   6 C       86   1 H                                       1.0919766
    46   6 C       87   1 H                                       1.0946306
    47   6 C       88   1 H                                       1.0905093
    47   6 C       89   1 H                                       1.0921480
    48   6 C       90   1 H                                       1.0945889
    49   6 C       91   1 H                                       1.0920100
    49   6 C       92   1 H                                       1.0904838
    50   6 C       93   1 H                                       1.0924768
    50   6 C       94   1 H                                       1.0911871
    51   6 C       95   1 H                                       1.0889019
    51   6 C       96   1 H                                       1.0901669

 * 6 distinct bonds (by element types)

   Z      Z             #   av. dist./Å        max./Å        min./Å
   1 H    6 C          45     1.0854334     1.0956204     1.0772014
   6 C    6 C          46     1.4282052     1.5328181     1.3639836
   6 C    7 N           5     1.4513449     1.4766659     1.4250691
   7 N   15 P           3     1.6647821     1.6733418     1.6585958
  15 P   16 S           1     2.1293920     2.1293920     2.1293920
  16 S   16 S           1     2.0510515     2.0510515     2.0510515


optimized geometry written to: xtbopt.xyz


           -------------------------------------------------
          | TOTAL ENERGY             -136.890059213695 Eh   |
          | GRADIENT NORM               0.000028952909 Eh/α |
          | HOMO-LUMO GAP               2.407503382834 eV   |
           -------------------------------------------------

------------------------------------------------------------------------
 * finished run on 2024/12/16 at 18:45:49.445     
------------------------------------------------------------------------
 total:
 * wall-time:     0 d,  0 h,  1 min, 50.896 sec
 *  cpu-time:     0 d,  0 h, 14 min, 30.675 sec
 * ratio c/w:     7.851 speedup
 SCF:
 * wall-time:     0 d,  0 h,  0 min,  2.565 sec
 *  cpu-time:     0 d,  0 h,  0 min, 20.372 sec
 * ratio c/w:     7.942 speedup
 ANC optimizer:
 * wall-time:     0 d,  0 h,  1 min, 48.145 sec
 *  cpu-time:     0 d,  0 h, 14 min,  8.886 sec
 * ratio c/w:     7.850 speedup

