      -----------------------------------------------------------      
     |                   =====================                   |     
     |                           x T B                           |     
     |                   =====================                   |     
     |                         S. Grimme                         |     
     |          Mulliken Center for Theoretical Chemistry        |     
     |                    University of Bonn                     |     
      -----------------------------------------------------------      

   * xtb version 6.7.1 (edcfbbe) compiled by 'conda@3ef47c1a292c' on 2024-11-25

   xtb is free software: you can redistribute it and/or modify it under
   the terms of the GNU Lesser General Public License as published by
   the Free Software Foundation, either version 3 of the License, or
   (at your option) any later version.
   
   xtb is distributed in the hope that it will be useful,
   but WITHOUT ANY WARRANTY; without even the implied warranty of
   MERCHANTABILITY or FITNESS FOR A PARTICULAR PURPOSE.  See the
   GNU Lesser General Public License for more details.
   
   Cite this work as:
   * C. Bannwarth, E. Caldeweyher, S. Ehlert, A. Hansen, P. Pracht,
     J. Seibert, S. Spicher, S. Grimme, WIREs Comput. Mol. Sci., 2020, 11,
     e01493. DOI: 10.1002/wcms.1493
   
   for GFN2-xTB:
   * C. Bannwarth, S. Ehlert and S. Grimme., J. Chem. Theory Comput., 2019,
     15, 1652-1671. DOI: 10.1021/acs.jctc.8b01176
   for GFN1-xTB:
   * S. Grimme, C. Bannwarth, P. Shushkov, J. Chem. Theory Comput., 2017,
     13, 1989-2009. DOI: 10.1021/acs.jctc.7b00118
   for GFN0-xTB:
   * P. Pracht, E. Caldeweyher, S. Ehlert, S. Grimme, ChemRxiv, 2019, preprint.
     DOI: 10.26434/chemrxiv.8326202.v1
   for GFN-FF:
   * S. Spicher and S. Grimme, Angew. Chem. Int. Ed., 2020, 59, 15665-15673.
     DOI: 10.1002/anie.202004239
   
   for ALPB and GBSA implicit solvation:
   * S. Ehlert, M. Stahn, S. Spicher, S. Grimme, J. Chem. Theory Comput.,
     2021, 17, 4250-4261. DOI: 10.1021/acs.jctc.1c00471
   
   for ddCOSMO and CPCM-X implicit solvation:
   * M. Stahn, S. Ehlert, S. Grimme, J. Phys. Chem. A,
     2023, XX, XXXX-XXXX. DOI: 10.1021/acs.jpca.3c04382
   
   for DFT-D4:
   * E. Caldeweyher, C. Bannwarth and S. Grimme, J. Chem. Phys., 2017,
     147, 034112. DOI: 10.1063/1.4993215
   * E. Caldeweyher, S. Ehlert, A. Hansen, H. Neugebauer, S. Spicher,
     C. Bannwarth and S. Grimme, J. Chem. Phys., 2019, 150, 154122.
     DOI: 10.1063/1.5090222
   * E. Caldeweyher, J.-M. Mewes, S. Ehlert and S. Grimme, Phys. Chem. Chem. Phys.
     2020, 22, 8499-8512. DOI: 10.1039/D0CP00502A
   
   for sTDA-xTB:
   * S. Grimme and C. Bannwarth, J. Chem. Phys., 2016, 145, 054103.
     DOI: 10.1063/1.4959605
   
   in the mass-spec context:
   * V. Asgeirsson, C. Bauer and S. Grimme, Chem. Sci., 2017, 8, 4879.
     DOI: 10.1039/c7sc00601b
   * J. Koopman and S. Grimme, ACS Omega 2019, 4, 12, 15120-15133.
     DOI: 10.1021/acsomega.9b02011
   
   for metadynamics refer to:
   * S. Grimme, J. Chem. Theory Comput., 2019, 155, 2847-2862
     DOI: 10.1021/acs.jctc.9b00143
   
   for SPH calculations refer to:
   * S. Spicher and S. Grimme, J. Chem. Theory Comput., 2021, 17, 1701-1714
     DOI: 10.1021/acs.jctc.0c01306
   
   for ONIOM refer to:
   * C. Plett, A. Katbashev, S. Ehlert, S. Grimme, M. Bursch,
     Phys. Chem. Chem. Phys., 2023, 25, 17860-17868. DOI: 10.1039/D3CP02178E
   
   for DIPRO refer to:
   * J. Kohn, N. Gildemeister, S. Grimme, D. Fazzi, A. Hansen,
     J. Chem. Phys., 2023, just accepted.
   
   for PTB refer to:
   * S. Grimme, M. Mueller, A. Hansen, J. Chem. Phys., 2023, 158, 124111.
     DOI: 10.1063/5.0137838
   
   with help from (in alphabetical order)
   P. Atkinson, C. Bannwarth, F. Bohle, G. Brandenburg, E. Caldeweyher
   M. Checinski, S. Dohm, S. Ehlert, S. Ehrlich, I. Gerasimov, C. Hölzer
   A. Katbashev, J. Kohn, J. Koopman, C. Lavigne, S. Lehtola, F. März, M. Müller,
   F. Musil, H. Neugebauer, J. Pisarek, C. Plett, P. Pracht, F. Pultar,
   J. Seibert, P. Shushkov, S. Spicher, M. Stahn, M. Steiner, T. Strunk,
   J. Stückrath, T. Rose, and J. Unsleber
   
 * started run on 2024/12/16 at 21:59:01.000     
   ID    Z sym.   atoms
    1    6 C      1-3, 5-7, 11-16, 18-35, 37
    2    7 N      4, 17, 36
    3   15 P      8
    4   16 S      9, 10
    5    1 H      38-76

           -------------------------------------------------
          |                Calculation Setup                |
           -------------------------------------------------

          program call               : xtb --gfn2 --opt extreme -P 8 --charge 1 molecule.xyz
          hostname                   : node05
          coordinate file            : molecule.xyz
          omp threads                :                     8


           -------------------------------------------------
          |                 G F N 2 - x T B                 |
           -------------------------------------------------

        Reference                      10.1021/acs.jctc.8b01176
      * Hamiltonian:
        H0-scaling (s, p, d)           1.850000    2.230000    2.230000
        zeta-weighting                 0.500000
      * Dispersion:
        s8                             2.700000
        a1                             0.520000
        a2                             5.000000
        s9                             5.000000
      * Repulsion:
        kExp                           1.500000    1.000000
        rExp                           1.000000
      * Coulomb:
        alpha                          2.000000
        third order                    shell-resolved
        anisotropic                    true
        a3                             3.000000
        a5                             4.000000
        cn-shift                       1.200000
        cn-exp                         4.000000
        max-rad                        5.000000


          ...................................................
          :                      SETUP                      :
          :.................................................:
          :  # basis functions                 205          :
          :  # atomic orbitals                 202          :
          :  # shells                          116          :
          :  # electrons                       194          :
          :  max. iterations                   250          :
          :  Hamiltonian                  GFN2-xTB          :
          :  restarted?                      false          :
          :  GBSA solvation                  false          :
          :  PC potential                    false          :
          :  electronic temp.          300.0000000     K    :
          :  accuracy                    1.0000000          :
          :  -> integral cutoff          0.2500000E+02      :
          :  -> integral neglect         0.1000000E-07      :
          :  -> SCF convergence          0.1000000E-05 Eh   :
          :  -> wf. convergence          0.1000000E-03 e    :
          :  Broyden damping             0.4000000          :
          :  net charge                          1          :
          :  unpaired electrons                  0          :
          ...................................................

 iter      E             dE          RMSdq      gap      omega  full diag
   1   -105.1349681 -0.105135E+03  0.403E+00    2.34       0.0  T
   2   -105.2893188 -0.154351E+00  0.238E+00    2.70       1.0  T
   3   -105.2960019 -0.668313E-02  0.109E+00    2.36       1.0  T
   4   -105.3056752 -0.967335E-02  0.416E-01    2.21       1.0  T
   5   -105.3087630 -0.308777E-02  0.197E-01    2.23       1.0  T
   6   -105.3098230 -0.105995E-02  0.652E-02    2.24       1.0  T
   7   -105.3098796 -0.566056E-04  0.337E-02    2.24       1.0  T
   8   -105.3098909 -0.112900E-04  0.173E-02    2.25       1.0  T
   9   -105.3098987 -0.781304E-05  0.942E-03    2.25       1.2  T
  10   -105.3099005 -0.180910E-05  0.449E-03    2.25       2.6  T
  11   -105.3099006 -0.160043E-06  0.267E-03    2.25       4.3  T
  12   -105.3099006 -0.133773E-07  0.148E-03    2.25       7.8  T
  13   -105.3099007 -0.863594E-07  0.640E-04    2.25      17.9  T
  14   -105.3099007 -0.370406E-08  0.267E-04    2.25      43.0  T

   *** convergence criteria satisfied after 14 iterations ***

         #    Occupation            Energy/Eh            Energy/eV
      -------------------------------------------------------------
         1        2.0000           -0.8569462             -23.3187
       ...           ...                  ...                  ...
        91        2.0000           -0.5105071             -13.8916
        92        2.0000           -0.5072026             -13.8017
        93        2.0000           -0.4958616             -13.4931
        94        2.0000           -0.4881681             -13.2837
        95        2.0000           -0.4818237             -13.1111
        96        2.0000           -0.4810649             -13.0904
        97        2.0000           -0.4723478             -12.8532 (HOMO)
        98                         -0.3897601             -10.6059 (LUMO)
        99                         -0.3600255              -9.7968
       100                         -0.3358412              -9.1387
       101                         -0.3322673              -9.0415
       102                         -0.3284968              -8.9389
       ...                                ...                  ...
       202                          1.0089762              27.4556
      -------------------------------------------------------------
                  HL-Gap            0.0825876 Eh            2.2473 eV
             Fermi-level           -0.4310540 Eh          -11.7296 eV

 SCC (total)                   0 d,  0 h,  0 min,  1.315 sec
 SCC setup                      ...        0 min,  0.000 sec (  0.022%)
 Dispersion                     ...        0 min,  0.002 sec (  0.126%)
 classical contributions        ...        0 min,  0.000 sec (  0.008%)
 integral evaluation            ...        0 min,  0.006 sec (  0.463%)
 iterations                     ...        0 min,  1.191 sec ( 90.541%)
 molecular gradient             ...        0 min,  0.111 sec (  8.452%)
 printout                       ...        0 min,  0.005 sec (  0.386%)

         :::::::::::::::::::::::::::::::::::::::::::::::::::::
         ::                     SUMMARY                     ::
         :::::::::::::::::::::::::::::::::::::::::::::::::::::
         :: total energy            -103.785736624533 Eh    ::
         :: gradient norm              0.087559312328 Eh/a0 ::
         :: HOMO-LUMO gap              2.247323758147 eV    ::
         ::.................................................::
         :: SCC energy              -105.303593895352 Eh    ::
         :: -> isotropic ES            0.079954939434 Eh    ::
         :: -> anisotropic ES          0.005112688108 Eh    ::
         :: -> anisotropic XC          0.063417962455 Eh    ::
         :: -> dispersion             -0.115433830861 Eh    ::
         :: repulsion energy           1.517857270818 Eh    ::
         :: add. restraining           0.000000000000 Eh    ::
         :: total charge               1.000000000000 e     ::
         :::::::::::::::::::::::::::::::::::::::::::::::::::::

      ----------------------------------------------------------- 
     |                   =====================                   |
     |                        A N C O P T                        |
     |                   =====================                   |
     |               Approximate Normal Coordinate               |
     |                Rational Function Optimizer                |
      ----------------------------------------------------------- 
      ----------------------------------------------------------- 
     |                   =====================                   |
     |                        A N C O P T                        |
     |                   =====================                   |
     |               Approximate Normal Coordinate               |
     |                Rational Function Optimizer                |
      ----------------------------------------------------------- 

          ...................................................
          :                      SETUP                      :
          :.................................................:
          :   optimization level           extreme          :
          :   max. optcycles                  1520          :
          :   ANC micro-cycles                  20          :
          :   degrees of freedom               222          :
          :.................................................:
          :   RF solver                   davidson          :
          :   write xtbopt.log                true          :
          :   linear?                        false          :
          :   energy convergence         0.5000000E-07 Eh   :
          :   grad. convergence          0.5000000E-04 Eh/α :
          :   maxmium RF displ.          1.0000000          :
          :   Hlow (freq-cutoff)         0.1000000E-01      :
          :   Hmax (freq-cutoff)         5.0000000          :
          :   S6 in model hess.         20.0000000          :
          ...................................................

generating ANC from exact Hessian ...
Using Lindh-Hessian (1995)
 Shifting diagonal of input Hessian by    9.8660926321119495E-003
 Lowest  eigenvalues of input Hessian
    0.000000    0.000000    0.000000    0.000000    0.000000    0.000000
    0.010000    0.010006    0.010104    0.010282    0.010310    0.010508
    0.011004    0.011127    0.011279    0.011383    0.011665    0.011989
 Highest eigenvalues
    1.925071    1.944309    1.962482    1.975635    1.990140    2.011783


........................................................................
.............................. CYCLE    1 ..............................
........................................................................

 iter      E             dE          RMSdq      gap      omega  full diag
   1   -105.3099007 -0.105310E+03  0.138E-04    2.25       0.0  T
   2   -105.3099007 -0.169337E-09  0.869E-05    2.25     132.0  T
   3   -105.3099007 -0.789697E-10  0.600E-05    2.25     191.1  T
     SCC iter.                  ...        0 min,  0.368 sec
     gradient                   ...        0 min,  0.112 sec
 * total energy  :  -103.7857366 Eh     change       -0.1421682E-08 Eh
   gradient norm :     0.0875597 Eh/α   predicted     0.0000000E+00 (-100.00%)
   displ. norm   :     0.4103318 α      lambda       -0.2221367E-01
   maximum displ.:     0.1023701 α      in ANC's #22, #79, #39, ...

........................................................................
.............................. CYCLE    2 ..............................
........................................................................

 iter      E             dE          RMSdq      gap      omega  full diag
   1   -105.3711349 -0.105371E+03  0.269E-01    2.33       0.0  T
   2   -105.3712529 -0.118002E-03  0.144E-01    2.39       1.0  T
   3   -105.3712388  0.141103E-04  0.377E-02    2.43       1.0  T
   4   -105.3712709 -0.321194E-04  0.174E-02    2.43       1.0  T
   5   -105.3712769 -0.593807E-05  0.649E-03    2.43       1.8  T
   6   -105.3712775 -0.603128E-06  0.331E-03    2.43       3.5  T
   7   -105.3712776 -0.124145E-06  0.212E-03    2.43       5.4  T
   8   -105.3712777 -0.578097E-07  0.117E-03    2.43       9.8  T
   9   -105.3712777 -0.135132E-07  0.665E-04    2.43      17.2  T
  10   -105.3712777 -0.906478E-08  0.286E-04    2.43      40.2  T
     SCC iter.                  ...        0 min,  1.209 sec
     gradient                   ...        0 min,  0.114 sec
 * total energy  :  -103.8007039 Eh     change       -0.1496732E-01 Eh
   gradient norm :     0.0331626 Eh/α   predicted    -0.1297896E-01 ( -13.28%)
   displ. norm   :     0.4008938 α      lambda       -0.6486312E-02
   maximum displ.:     0.1297432 α      in ANC's #14, #18, #8, ...

........................................................................
.............................. CYCLE    3 ..............................
........................................................................

 iter      E             dE          RMSdq      gap      omega  full diag
   1   -105.4018130 -0.105402E+03  0.183E-01    2.52       0.0  T
   2   -105.4018639 -0.509177E-04  0.956E-02    2.55       1.0  T
   3   -105.4018560  0.793925E-05  0.250E-02    2.57       1.0  T
   4   -105.4018705 -0.145433E-04  0.115E-02    2.58       1.0  T
   5   -105.4018740 -0.346894E-05  0.389E-03    2.57       2.9  T
   6   -105.4018743 -0.288361E-06  0.161E-03    2.57       7.1  T
   7   -105.4018743 -0.369946E-07  0.862E-04    2.57      13.3  T
   8   -105.4018743 -0.102529E-07  0.431E-04    2.57      26.6  T
     SCC iter.                  ...        0 min,  1.126 sec
     gradient                   ...        0 min,  0.111 sec
 * total energy  :  -103.8047887 Eh     change       -0.4084748E-02 Eh
   gradient norm :     0.0131189 Eh/α   predicted    -0.3764384E-02 (  -7.84%)
   displ. norm   :     0.3707859 α      lambda       -0.1994908E-02
   maximum displ.:     0.1682487 α      in ANC's #8, #11, #18, ...

........................................................................
.............................. CYCLE    4 ..............................
........................................................................

 iter      E             dE          RMSdq      gap      omega  full diag
   1   -105.4066326 -0.105407E+03  0.928E-02    2.60       0.0  T
   2   -105.4066457 -0.130407E-04  0.516E-02    2.61       1.0  T
   3   -105.4066388  0.684137E-05  0.174E-02    2.62       1.0  T
   4   -105.4066487 -0.992943E-05  0.605E-03    2.62       1.9  T
   5   -105.4066493 -0.552882E-06  0.301E-03    2.62       3.8  T
   6   -105.4066495 -0.243073E-06  0.138E-03    2.62       8.3  T
   7   -105.4066495 -0.588113E-08  0.801E-04    2.62      14.3  T
   8   -105.4066496 -0.104150E-07  0.399E-04    2.62      28.8  T
     SCC iter.                  ...        0 min,  0.904 sec
     gradient                   ...        0 min,  0.169 sec
 * total energy  :  -103.8062279 Eh     change       -0.1439176E-02 Eh
   gradient norm :     0.0093984 Eh/α   predicted    -0.1134781E-02 ( -21.15%)
   displ. norm   :     0.4866623 α      lambda       -0.1628587E-02
   maximum displ.:     0.2432518 α      in ANC's #8, #11, #14, ...

........................................................................
.............................. CYCLE    5 ..............................
........................................................................

 iter      E             dE          RMSdq      gap      omega  full diag
   1   -105.4060217 -0.105406E+03  0.124E-01    2.64       0.0  T
   2   -105.4060462 -0.244990E-04  0.614E-02    2.64       1.0  T
   3   -105.4060449  0.121978E-05  0.167E-02    2.64       1.0  T
   4   -105.4060482 -0.326991E-05  0.872E-03    2.65       1.3  T
   5   -105.4060500 -0.177729E-05  0.301E-03    2.65       3.8  T
   6   -105.4060502 -0.248042E-06  0.107E-03    2.65      10.7  T
   7   -105.4060503 -0.214040E-07  0.506E-04    2.65      22.7  T
   8   -105.4060503 -0.716653E-09  0.281E-04    2.65      40.9  T
     SCC iter.                  ...        0 min,  1.026 sec
     gradient                   ...        0 min,  0.111 sec
 * total energy  :  -103.8073264 Eh     change       -0.1098498E-02 Eh
   gradient norm :     0.0076957 Eh/α   predicted    -0.1007176E-02 (  -8.31%)
   displ. norm   :     0.4210785 α      lambda       -0.9612617E-03
   maximum displ.:     0.2219982 α      in ANC's #11, #8, #12, ...

........................................................................
.............................. CYCLE    6 ..............................
........................................................................

 iter      E             dE          RMSdq      gap      omega  full diag
   1   -105.4058114 -0.105406E+03  0.763E-02    2.65       0.0  T
   2   -105.4058186 -0.721940E-05  0.433E-02    2.65       1.0  T
   3   -105.4058157  0.284496E-05  0.117E-02    2.65       1.0  T
   4   -105.4058194 -0.371207E-05  0.412E-03    2.65       2.8  T
   5   -105.4058199 -0.452936E-06  0.214E-03    2.65       5.4  T
   6   -105.4058200 -0.107817E-06  0.114E-03    2.65      10.1  T
   7   -105.4058200 -0.152771E-07  0.619E-04    2.65      18.5  T
   8   -105.4058200 -0.575527E-08  0.335E-04    2.65      34.2  T
     SCC iter.                  ...        0 min,  0.518 sec
     gradient                   ...        0 min,  0.110 sec
 * total energy  :  -103.8080062 Eh     change       -0.6798268E-03 Eh
   gradient norm :     0.0081146 Eh/α   predicted    -0.5658522E-03 ( -16.77%)
   displ. norm   :     0.3828951 α      lambda       -0.6627877E-03
   maximum displ.:     0.2134472 α      in ANC's #11, #8, #12, ...

........................................................................
.............................. CYCLE    7 ..............................
........................................................................

 iter      E             dE          RMSdq      gap      omega  full diag
   1   -105.4063146 -0.105406E+03  0.800E-02    2.65       0.0  T
   2   -105.4063191 -0.445576E-05  0.419E-02    2.65       1.0  T
   3   -105.4063188  0.257880E-06  0.897E-03    2.65       1.3  T
   4   -105.4063190 -0.231779E-06  0.478E-03    2.65       2.4  T
   5   -105.4063199 -0.864238E-06  0.103E-03    2.65      11.2  T
   6   -105.4063199 -0.282154E-07  0.380E-04    2.65      30.2  T
   7   -105.4063199 -0.625704E-09  0.191E-04    2.65      60.1  T
     SCC iter.                  ...        0 min,  0.621 sec
     gradient                   ...        0 min,  0.111 sec
 * total energy  :  -103.8085154 Eh     change       -0.5091778E-03 Eh
   gradient norm :     0.0073788 Eh/α   predicted    -0.3799824E-03 ( -25.37%)
   displ. norm   :     0.4044235 α      lambda       -0.5772486E-03
   maximum displ.:     0.2291936 α      in ANC's #11, #8, #5, ...

........................................................................
.............................. CYCLE    8 ..............................
........................................................................

 iter      E             dE          RMSdq      gap      omega  full diag
   1   -105.4083615 -0.105408E+03  0.754E-02    2.65       0.0  T
   2   -105.4083648 -0.333639E-05  0.424E-02    2.65       1.0  T
   3   -105.4083621  0.272794E-05  0.901E-03    2.64       1.3  T
   4   -105.4083654 -0.336786E-05  0.351E-03    2.64       3.3  T
   5   -105.4083658 -0.375871E-06  0.102E-03    2.64      11.3  T
   6   -105.4083658 -0.258031E-07  0.471E-04    2.64      24.4  T
   7   -105.4083658 -0.420211E-08  0.247E-04    2.64      46.5  T
     SCC iter.                  ...        0 min,  0.778 sec
     gradient                   ...        0 min,  0.115 sec
 * total energy  :  -103.8089490 Eh     change       -0.4336669E-03 Eh
   gradient norm :     0.0052618 Eh/α   predicted    -0.3358381E-03 ( -22.56%)
   displ. norm   :     0.4090117 α      lambda       -0.4430265E-03
   maximum displ.:     0.2234396 α      in ANC's #11, #3, #5, ...

........................................................................
.............................. CYCLE    9 ..............................
........................................................................

 iter      E             dE          RMSdq      gap      omega  full diag
   1   -105.4086538 -0.105409E+03  0.821E-02    2.64       0.0  T
   2   -105.4086577 -0.387211E-05  0.455E-02    2.64       1.0  T
   3   -105.4086565  0.121796E-05  0.941E-03    2.64       1.2  T
   4   -105.4086581 -0.157516E-05  0.432E-03    2.64       2.7  T
   5   -105.4086585 -0.468670E-06  0.136E-03    2.64       8.5  T
   6   -105.4086586 -0.108760E-06  0.440E-04    2.64      26.0  T
   7   -105.4086586 -0.325717E-08  0.266E-04    2.64      43.1  T
     SCC iter.                  ...        0 min,  0.639 sec
     gradient                   ...        0 min,  0.111 sec
 * total energy  :  -103.8092795 Eh     change       -0.3304258E-03 Eh
   gradient norm :     0.0043189 Eh/α   predicted    -0.2585749E-03 ( -21.74%)
   displ. norm   :     0.3989108 α      lambda       -0.3573636E-03
   maximum displ.:     0.2106698 α      in ANC's #11, #5, #3, ...

........................................................................
.............................. CYCLE   10 ..............................
........................................................................

 iter      E             dE          RMSdq      gap      omega  full diag
   1   -105.4097051 -0.105410E+03  0.706E-02    2.64       0.0  T
   2   -105.4097075 -0.239465E-05  0.407E-02    2.64       1.0  T
   3   -105.4097062  0.123437E-05  0.729E-03    2.64       1.6  T
   4   -105.4097080 -0.177263E-05  0.258E-03    2.64       4.4  T
   5   -105.4097081 -0.833924E-07  0.117E-03    2.64       9.8  T
   6   -105.4097081 -0.443956E-07  0.587E-04    2.64      19.5  T
   7   -105.4097081 -0.151083E-08  0.354E-04    2.64      32.4  T
     SCC iter.                  ...        0 min,  0.759 sec
     gradient                   ...        0 min,  0.116 sec
 * total energy  :  -103.8095520 Eh     change       -0.2724898E-03 Eh
   gradient norm :     0.0045364 Eh/α   predicted    -0.2071162E-03 ( -23.99%)
   displ. norm   :     0.4036434 α      lambda       -0.3145883E-03
   maximum displ.:     0.1900940 α      in ANC's #11, #3, #5, ...

........................................................................
.............................. CYCLE   11 ..............................
........................................................................

 iter      E             dE          RMSdq      gap      omega  full diag
   1   -105.4098705 -0.105410E+03  0.679E-02    2.64       0.0  T
   2   -105.4098720 -0.142312E-05  0.393E-02    2.64       1.0  T
   3   -105.4098707  0.129309E-05  0.582E-03    2.64       2.0  T
   4   -105.4098723 -0.163992E-05  0.213E-03    2.64       5.4  T
   5   -105.4098724 -0.134085E-06  0.784E-04    2.64      14.6  T
   6   -105.4098725 -0.203513E-07  0.356E-04    2.64      32.2  T
     SCC iter.                  ...        0 min,  0.686 sec
     gradient                   ...        0 min,  0.168 sec
 * total energy  :  -103.8098033 Eh     change       -0.2513822E-03 Eh
   gradient norm :     0.0046937 Eh/α   predicted    -0.1829235E-03 ( -27.23%)
   displ. norm   :     0.4354328 α      lambda       -0.3209535E-03
   maximum displ.:     0.1952076 α      in ANC's #5, #3, #6, ...

........................................................................
.............................. CYCLE   12 ..............................
........................................................................

 iter      E             dE          RMSdq      gap      omega  full diag
   1   -105.4100698 -0.105410E+03  0.696E-02    2.64       0.0  T
   2   -105.4100714 -0.162208E-05  0.398E-02    2.65       1.0  T
   3   -105.4100700  0.138891E-05  0.654E-03    2.65       1.8  T
   4   -105.4100716 -0.159794E-05  0.296E-03    2.65       3.9  T
   5   -105.4100720 -0.334913E-06  0.591E-04    2.65      19.4  T
   6   -105.4100720 -0.608927E-08  0.354E-04    2.65      32.4  T
     SCC iter.                  ...        0 min,  0.905 sec
     gradient                   ...        0 min,  0.168 sec
 * total energy  :  -103.8100680 Eh     change       -0.2647022E-03 Eh
   gradient norm :     0.0047897 Eh/α   predicted    -0.1909060E-03 ( -27.88%)
   displ. norm   :     0.5060933 α      lambda       -0.3559421E-03
   maximum displ.:     0.2312681 α      in ANC's #5, #6, #3, ...

........................................................................
.............................. CYCLE   13 ..............................
........................................................................

 iter      E             dE          RMSdq      gap      omega  full diag
   1   -105.4096332 -0.105410E+03  0.791E-02    2.66       0.0  T
   2   -105.4096355 -0.228904E-05  0.451E-02    2.66       1.0  T
   3   -105.4096332  0.235235E-05  0.826E-03    2.66       1.4  T
   4   -105.4096358 -0.263964E-05  0.348E-03    2.66       3.3  T
   5   -105.4096363 -0.480260E-06  0.807E-04    2.66      14.2  T
   6   -105.4096363 -0.243943E-07  0.344E-04    2.66      33.4  T
     SCC iter.                  ...        0 min,  0.936 sec
     gradient                   ...        0 min,  0.178 sec
 * total energy  :  -103.8103631 Eh     change       -0.2951119E-03 Eh
   gradient norm :     0.0048100 Eh/α   predicted    -0.2235556E-03 ( -24.25%)
   displ. norm   :     0.5630214 α      lambda       -0.3757003E-03
   maximum displ.:     0.2613219 α      in ANC's #5, #6, #3, ...

........................................................................
.............................. CYCLE   14 ..............................
........................................................................

 iter      E             dE          RMSdq      gap      omega  full diag
   1   -105.4090992 -0.105409E+03  0.874E-02    2.68       0.0  T
   2   -105.4091019 -0.271998E-05  0.498E-02    2.68       1.0  T
   3   -105.4090994  0.249117E-05  0.884E-03    2.68       1.3  T
   4   -105.4091021 -0.276157E-05  0.382E-03    2.68       3.0  T
   5   -105.4091027 -0.599953E-06  0.938E-04    2.68      12.2  T
   6   -105.4091028 -0.408850E-07  0.359E-04    2.68      32.0  T
     SCC iter.                  ...        0 min,  0.768 sec
     gradient                   ...        0 min,  0.186 sec
 * total energy  :  -103.8106719 Eh     change       -0.3087686E-03 Eh
   gradient norm :     0.0057705 Eh/α   predicted    -0.2473985E-03 ( -19.88%)
   displ. norm   :     0.8612811 α      lambda       -0.6218249E-03
   maximum displ.:     0.4211987 α      in ANC's #5, #6, #3, ...

........................................................................
.............................. CYCLE   15 ..............................
........................................................................

 iter      E             dE          RMSdq      gap      omega  full diag
   1   -105.4046932 -0.105405E+03  0.133E-01    2.70       0.0  T
   2   -105.4046992 -0.598394E-05  0.761E-02    2.71       1.0  T
   3   -105.4046937  0.552663E-05  0.129E-02    2.71       1.0  T
   4   -105.4047001 -0.646278E-05  0.503E-03    2.71       2.3  T
   5   -105.4047010 -0.900417E-06  0.164E-03    2.71       7.0  T
   6   -105.4047012 -0.155169E-06  0.563E-04    2.71      20.4  T
   7   -105.4047012 -0.477016E-08  0.311E-04    2.71      36.9  T
     SCC iter.                  ...        0 min,  0.876 sec
     gradient                   ...        0 min,  0.111 sec
 * total energy  :  -103.8109292 Eh     change       -0.2572585E-03 Eh
   gradient norm :     0.0094532 Eh/α   predicted    -0.5415512E-03 ( 110.51%)
   displ. norm   :     0.2449929 α      lambda       -0.3768892E-03
   maximum displ.:     0.1108995 α      in ANC's #5, #7, #2, ...

........................................................................
.............................. CYCLE   16 ..............................
........................................................................

 iter      E             dE          RMSdq      gap      omega  full diag
   1   -105.4140398 -0.105414E+03  0.444E-02    2.72       0.0  T
   2   -105.4140427 -0.286839E-05  0.252E-02    2.72       1.0  T
   3   -105.4140423  0.395888E-06  0.520E-03    2.72       2.2  T
   4   -105.4140430 -0.665941E-06  0.195E-03    2.72       5.9  T
   5   -105.4140431 -0.111613E-06  0.794E-04    2.72      14.4  T
   6   -105.4140431 -0.130099E-07  0.306E-04    2.72      37.5  T
     SCC iter.                  ...        0 min,  0.665 sec
     gradient                   ...        0 min,  0.181 sec
 * total energy  :  -103.8111314 Eh     change       -0.2022198E-03 Eh
   gradient norm :     0.0084185 Eh/α   predicted    -0.1997564E-03 (  -1.22%)
   displ. norm   :     0.5052219 α      lambda       -0.5119790E-03
   maximum displ.:     0.2449380 α      in ANC's #5, #6, #3, ...

........................................................................
.............................. CYCLE   17 ..............................
........................................................................

 iter      E             dE          RMSdq      gap      omega  full diag
   1   -105.4145410 -0.105415E+03  0.793E-02    2.72       0.0  T
   2   -105.4145457 -0.475020E-05  0.448E-02    2.72       1.0  T
   3   -105.4145440  0.171110E-05  0.852E-03    2.72       1.3  T
   4   -105.4145462 -0.220154E-05  0.384E-03    2.72       3.0  T
   5   -105.4145466 -0.429799E-06  0.130E-03    2.72       8.8  T
   6   -105.4145467 -0.588472E-07  0.609E-04    2.72      18.8  T
   7   -105.4145467 -0.873794E-08  0.361E-04    2.72      31.8  T
     SCC iter.                  ...        0 min,  0.977 sec
     gradient                   ...        0 min,  0.121 sec
 * total energy  :  -103.8114824 Eh     change       -0.3509922E-03 Eh
   gradient norm :     0.0080928 Eh/α   predicted    -0.3213361E-03 (  -8.45%)
   displ. norm   :     0.5153884 α      lambda       -0.3869923E-03
   maximum displ.:     0.2380629 α      in ANC's #5, #6, #2, ...

........................................................................
.............................. CYCLE   18 ..............................
........................................................................

 iter      E             dE          RMSdq      gap      omega  full diag
   1   -105.4125968 -0.105413E+03  0.794E-02    2.72       0.0  T
   2   -105.4125998 -0.300119E-05  0.442E-02    2.72       1.0  T
   3   -105.4125987  0.104997E-05  0.784E-03    2.72       1.5  T
   4   -105.4126001 -0.136648E-05  0.385E-03    2.72       3.0  T
   5   -105.4126006 -0.483136E-06  0.101E-03    2.72      11.4  T
   6   -105.4126006 -0.176870E-07  0.574E-04    2.72      20.0  T
   7   -105.4126006 -0.344625E-08  0.343E-04    2.72      33.5  T
     SCC iter.                  ...        0 min,  0.861 sec
     gradient                   ...        0 min,  0.113 sec
 * total energy  :  -103.8117955 Eh     change       -0.3130790E-03 Eh
   gradient norm :     0.0076759 Eh/α   predicted    -0.2448955E-03 ( -21.78%)
   displ. norm   :     0.5503287 α      lambda       -0.4359026E-03
   maximum displ.:     0.2301580 α      in ANC's #5, #2, #6, ...

........................................................................
.............................. CYCLE   19 ..............................
........................................................................

 iter      E             dE          RMSdq      gap      omega  full diag
   1   -105.4113588 -0.105411E+03  0.829E-02    2.70       0.0  T
   2   -105.4113625 -0.368338E-05  0.453E-02    2.70       1.0  T
   3   -105.4113606  0.191333E-05  0.965E-03    2.70       1.2  T
   4   -105.4113630 -0.240498E-05  0.466E-03    2.70       2.5  T
   5   -105.4113636 -0.611886E-06  0.102E-03    2.70      11.2  T
   6   -105.4113636 -0.161532E-07  0.610E-04    2.70      18.8  T
   7   -105.4113636 -0.327367E-08  0.355E-04    2.70      32.3  T
     SCC iter.                  ...        0 min,  0.889 sec
     gradient                   ...        0 min,  0.117 sec
 * total energy  :  -103.8121364 Eh     change       -0.3409623E-03 Eh
   gradient norm :     0.0068108 Eh/α   predicted    -0.2839612E-03 ( -16.72%)
   displ. norm   :     0.5785268 α      lambda       -0.3583493E-03
   maximum displ.:     0.2409627 α      in ANC's #5, #2, #6, ...

........................................................................
.............................. CYCLE   20 ..............................
........................................................................

 iter      E             dE          RMSdq      gap      omega  full diag
   1   -105.4104502 -0.105410E+03  0.795E-02    2.69       0.0  T
   2   -105.4104537 -0.347127E-05  0.435E-02    2.70       1.0  T
   3   -105.4104516  0.208294E-05  0.943E-03    2.70       1.2  T
   4   -105.4104543 -0.268019E-05  0.423E-03    2.70       2.7  T
   5   -105.4104547 -0.453982E-06  0.104E-03    2.70      11.0  T
   6   -105.4104548 -0.199195E-07  0.593E-04    2.70      19.4  T
   7   -105.4104548 -0.322642E-08  0.364E-04    2.70      31.5  T
     SCC iter.                  ...        0 min,  0.748 sec
     gradient                   ...        0 min,  0.115 sec
 * total energy  :  -103.8124233 Eh     change       -0.2869177E-03 Eh
   gradient norm :     0.0066034 Eh/α   predicted    -0.2391455E-03 ( -16.65%)
   displ. norm   :     0.4971423 α      lambda       -0.3683332E-03
   maximum displ.:     0.2254750 α      in ANC's #2, #6, #5, ...
 * RMSD in coord.:     0.8166097 α      energy gain  -0.2668672E-01 Eh

generating ANC from exact Hessian ...
Using Lindh-Hessian (1995)
 Shifting diagonal of input Hessian by    1.0136360999965021E-002
 Lowest  eigenvalues of input Hessian
    0.010000    0.000000    0.000000    0.000000    0.000000    0.000000
    0.000000    0.010229    0.010253    0.010369    0.010508    0.010612
    0.010924    0.011198    0.011308    0.011342    0.011632    0.012032
 Highest eigenvalues
    2.001604    2.017225    2.021138    2.028446    2.037808    2.053788


........................................................................
.............................. CYCLE   21 ..............................
........................................................................

 iter      E             dE          RMSdq      gap      omega  full diag
   1   -105.4131669 -0.105413E+03  0.716E-02    2.69       0.0  T
   2   -105.4131713 -0.439398E-05  0.380E-02    2.69       1.0  T
   3   -105.4131697  0.158534E-05  0.930E-03    2.69       1.2  T
   4   -105.4131717 -0.204024E-05  0.437E-03    2.69       2.6  T
   5   -105.4131723 -0.583633E-06  0.111E-03    2.69      10.3  T
   6   -105.4131723 -0.302503E-07  0.561E-04    2.69      20.4  T
   7   -105.4131723 -0.484974E-08  0.345E-04    2.69      33.2  T
     SCC iter.                  ...        0 min,  0.812 sec
     gradient                   ...        0 min,  0.120 sec
 * total energy  :  -103.8126504 Eh     change       -0.2270471E-03 Eh
   gradient norm :     0.0061514 Eh/α   predicted     0.0000000E+00 (-100.00%)
   displ. norm   :     0.0698000 α      lambda       -0.1292792E-03
   maximum displ.:     0.0251606 α      in ANC's #13, #1, #32, ...

........................................................................
.............................. CYCLE   22 ..............................
........................................................................

 iter      E             dE          RMSdq      gap      omega  full diag
   1   -105.4143382 -0.105414E+03  0.153E-02    2.69       0.0  T
   2   -105.4143386 -0.355321E-06  0.874E-03    2.69       1.3  T
   3   -105.4143385  0.117342E-06  0.241E-03    2.69       4.8  T
   4   -105.4143386 -0.174489E-06  0.997E-04    2.69      11.5  T
   5   -105.4143386 -0.142474E-07  0.439E-04    2.69      26.1  T
     SCC iter.                  ...        0 min,  0.728 sec
     gradient                   ...        0 min,  0.118 sec
 * total energy  :  -103.8127540 Eh     change       -0.1035735E-03 Eh
   gradient norm :     0.0025973 Eh/α   predicted    -0.6498195E-04 ( -37.26%)
   displ. norm   :     0.1959953 α      lambda       -0.2133414E-03
   maximum displ.:     0.0746086 α      in ANC's #1, #13, #32, ...

........................................................................
.............................. CYCLE   23 ..............................
........................................................................

 iter      E             dE          RMSdq      gap      omega  full diag
   1   -105.4157851 -0.105416E+03  0.354E-02    2.71       0.0  T
   2   -105.4157870 -0.194140E-05  0.208E-02    2.71       1.0  T
   3   -105.4157865  0.464494E-06  0.578E-03    2.71       2.0  T
   4   -105.4157873 -0.720332E-06  0.238E-03    2.71       4.8  T
   5   -105.4157873 -0.741922E-07  0.110E-03    2.71      10.4  T
   6   -105.4157874 -0.540890E-07  0.435E-04    2.71      26.4  T
   7   -105.4157874 -0.128973E-08  0.271E-04    2.71      42.3  T
     SCC iter.                  ...        0 min,  0.970 sec
     gradient                   ...        0 min,  0.157 sec
 * total energy  :  -103.8128860 Eh     change       -0.1320493E-03 Eh
   gradient norm :     0.0045998 Eh/α   predicted    -0.1107711E-03 ( -16.11%)
   displ. norm   :     0.1841500 α      lambda       -0.1282409E-03
   maximum displ.:     0.0661304 α      in ANC's #1, #13, #32, ...

........................................................................
.............................. CYCLE   24 ..............................
........................................................................

 iter      E             dE          RMSdq      gap      omega  full diag
   1   -105.4156601 -0.105416E+03  0.381E-02    2.72       0.0  T
   2   -105.4156623 -0.214673E-05  0.187E-02    2.72       1.0  T
   3   -105.4156624 -0.985491E-07  0.493E-03    2.72       2.3  T
   4   -105.4156623  0.213506E-07  0.246E-03    2.72       4.7  T
   5   -105.4156626 -0.210792E-06  0.964E-04    2.72      11.9  T
   6   -105.4156626 -0.212601E-07  0.412E-04    2.72      27.8  T
     SCC iter.                  ...        0 min,  0.772 sec
     gradient                   ...        0 min,  0.138 sec
 * total energy  :  -103.8129615 Eh     change       -0.7549133E-04 Eh
   gradient norm :     0.0062429 Eh/α   predicted    -0.6630080E-04 ( -12.17%)
   displ. norm   :     0.2168742 α      lambda       -0.1436883E-03
   maximum displ.:     0.0984147 α      in ANC's #1, #29, #32, ...

........................................................................
.............................. CYCLE   25 ..............................
........................................................................

 iter      E             dE          RMSdq      gap      omega  full diag
   1   -105.4152348 -0.105415E+03  0.302E-02    2.72       0.0  T
   2   -105.4152356 -0.791448E-06  0.173E-02    2.73       1.0  T
   3   -105.4152356  0.185816E-07  0.317E-03    2.73       3.6  T
   4   -105.4152357 -0.808179E-07  0.153E-03    2.73       7.5  T
   5   -105.4152357 -0.407362E-07  0.594E-04    2.73      19.3  T
   6   -105.4152358 -0.189526E-07  0.212E-04    2.73      54.1  T
     SCC iter.                  ...        0 min,  0.512 sec
     gradient                   ...        0 min,  0.112 sec
 * total energy  :  -103.8130759 Eh     change       -0.1143881E-03 Eh
   gradient norm :     0.0057839 Eh/α   predicted    -0.7522351E-04 ( -34.24%)
   displ. norm   :     0.3157882 α      lambda       -0.2294564E-03
   maximum displ.:     0.1477069 α      in ANC's #1, #29, #32, ...

........................................................................
.............................. CYCLE   26 ..............................
........................................................................

 iter      E             dE          RMSdq      gap      omega  full diag
   1   -105.4144825 -0.105414E+03  0.397E-02    2.73       0.0  T
   2   -105.4144836 -0.112570E-05  0.224E-02    2.73       1.0  T
   3   -105.4144833  0.322979E-06  0.444E-03    2.73       2.6  T
   4   -105.4144837 -0.411119E-06  0.212E-03    2.73       5.4  T
   5   -105.4144839 -0.162704E-06  0.669E-04    2.73      17.2  T
   6   -105.4144839 -0.118028E-07  0.246E-04    2.73      46.6  T
     SCC iter.                  ...        0 min,  0.603 sec
     gradient                   ...        0 min,  0.111 sec
 * total energy  :  -103.8132476 Eh     change       -0.1717284E-03 Eh
   gradient norm :     0.0030878 Eh/α   predicted    -0.1261764E-03 ( -26.53%)
   displ. norm   :     0.3773474 α      lambda       -0.1937420E-03
   maximum displ.:     0.1812272 α      in ANC's #1, #4, #32, ...

........................................................................
.............................. CYCLE   27 ..............................
........................................................................

 iter      E             dE          RMSdq      gap      omega  full diag
   1   -105.4133035 -0.105413E+03  0.476E-02    2.72       0.0  T
   2   -105.4133055 -0.194864E-05  0.261E-02    2.72       1.0  T
   3   -105.4133048  0.677849E-06  0.617E-03    2.72       1.9  T
   4   -105.4133055 -0.760981E-06  0.305E-03    2.72       3.8  T
   5   -105.4133059 -0.356552E-06  0.754E-04    2.72      15.2  T
   6   -105.4133059 -0.150367E-07  0.398E-04    2.72      28.8  T
     SCC iter.                  ...        0 min,  0.914 sec
     gradient                   ...        0 min,  0.178 sec
 * total energy  :  -103.8134003 Eh     change       -0.1526962E-03 Eh
   gradient norm :     0.0042065 Eh/α   predicted    -0.1106675E-03 ( -27.52%)
   displ. norm   :     0.4265976 α      lambda       -0.2415749E-03
   maximum displ.:     0.2108305 α      in ANC's #1, #4, #32, ...

........................................................................
.............................. CYCLE   28 ..............................
........................................................................

 iter      E             dE          RMSdq      gap      omega  full diag
   1   -105.4136160 -0.105414E+03  0.569E-02    2.71       0.0  T
   2   -105.4136187 -0.267907E-05  0.306E-02    2.71       1.0  T
   3   -105.4136176  0.104505E-05  0.771E-03    2.71       1.5  T
   4   -105.4136189 -0.124941E-05  0.391E-03    2.71       2.9  T
   5   -105.4136193 -0.470015E-06  0.927E-04    2.71      12.4  T
   6   -105.4136194 -0.158386E-07  0.548E-04    2.71      20.9  T
     SCC iter.                  ...        0 min,  0.843 sec
     gradient                   ...        0 min,  0.118 sec
 * total energy  :  -103.8135861 Eh     change       -0.1858147E-03 Eh
   gradient norm :     0.0051951 Eh/α   predicted    -0.1427701E-03 ( -23.17%)
   displ. norm   :     0.4477875 α      lambda       -0.2285570E-03
   maximum displ.:     0.2278849 α      in ANC's #1, #4, #32, ...

........................................................................
.............................. CYCLE   29 ..............................
........................................................................

 iter      E             dE          RMSdq      gap      omega  full diag
   1   -105.4137150 -0.105414E+03  0.576E-02    2.71       0.0  T
   2   -105.4137177 -0.272267E-05  0.311E-02    2.71       1.0  T
   3   -105.4137168  0.834150E-06  0.738E-03    2.71       1.6  T
   4   -105.4137177 -0.878412E-06  0.407E-03    2.71       2.8  T
   5   -105.4137183 -0.597780E-06  0.100E-03    2.71      11.5  T
   6   -105.4137183 -0.153683E-07  0.599E-04    2.71      19.1  T
   7   -105.4137183 -0.245613E-08  0.392E-04    2.71      29.3  T
     SCC iter.                  ...        0 min,  0.718 sec
     gradient                   ...        0 min,  0.111 sec
 * total energy  :  -103.8137672 Eh     change       -0.1811109E-03 Eh
   gradient norm :     0.0054690 Eh/α   predicted    -0.1371935E-03 ( -24.25%)
   displ. norm   :     0.4362426 α      lambda       -0.3215916E-03
   maximum displ.:     0.2166274 α      in ANC's #1, #4, #12, ...

........................................................................
.............................. CYCLE   30 ..............................
........................................................................

 iter      E             dE          RMSdq      gap      omega  full diag
   1   -105.4193895 -0.105419E+03  0.704E-02    2.70       0.0  T
   2   -105.4193943 -0.472833E-05  0.389E-02    2.70       1.0  T
   3   -105.4193933  0.959927E-06  0.871E-03    2.70       1.3  T
   4   -105.4193947 -0.138140E-05  0.427E-03    2.70       2.7  T
   5   -105.4193951 -0.431718E-06  0.158E-03    2.70       7.2  T
   6   -105.4193952 -0.927852E-07  0.755E-04    2.70      15.2  T
   7   -105.4193952 -0.238023E-08  0.459E-04    2.70      25.0  T
     SCC iter.                  ...        0 min,  0.598 sec
     gradient                   ...        0 min,  0.110 sec
 * total energy  :  -103.8138817 Eh     change       -0.1144550E-03 Eh
   gradient norm :     0.0085003 Eh/α   predicted    -0.1913970E-03 (  67.22%)
   displ. norm   :     0.5274839 α      lambda       -0.3672160E-03
   maximum displ.:     0.2742282 α      in ANC's #1, #4, #32, ...

........................................................................
.............................. CYCLE   31 ..............................
........................................................................

 iter      E             dE          RMSdq      gap      omega  full diag
   1   -105.4140968 -0.105414E+03  0.637E-02    2.71       0.0  T
   2   -105.4141030 -0.613222E-05  0.347E-02    2.71       1.0  T
   3   -105.4141030 -0.376924E-07  0.854E-03    2.71       1.3  T
   4   -105.4141036 -0.591922E-06  0.380E-03    2.71       3.0  T
   5   -105.4141037 -0.142921E-06  0.164E-03    2.71       7.0  T
   6   -105.4141038 -0.942835E-07  0.612E-04    2.71      18.8  T
   7   -105.4141038 -0.526686E-08  0.317E-04    2.71      36.2  T
     SCC iter.                  ...        0 min,  0.697 sec
     gradient                   ...        0 min,  0.111 sec
 * total energy  :  -103.8140424 Eh     change       -0.1607128E-03 Eh
   gradient norm :     0.0080186 Eh/α   predicted    -0.2347039E-03 (  46.04%)
   displ. norm   :     0.0726542 α      lambda       -0.1502068E-03
   maximum displ.:     0.0332300 α      in ANC's #8, #31, #29, ...

........................................................................
.............................. CYCLE   32 ..............................
........................................................................

 iter      E             dE          RMSdq      gap      omega  full diag
   1   -105.4164772 -0.105416E+03  0.240E-02    2.72       0.0  T
   2   -105.4164782 -0.987098E-06  0.121E-02    2.72       1.0  T
   3   -105.4164781  0.502137E-07  0.368E-03    2.72       3.1  T
   4   -105.4164782 -0.103491E-06  0.175E-03    2.72       6.6  T
   5   -105.4164783 -0.601957E-07  0.618E-04    2.72      18.6  T
   6   -105.4164783 -0.177999E-07  0.200E-04    2.72      57.3  T
     SCC iter.                  ...        0 min,  0.779 sec
     gradient                   ...        0 min,  0.172 sec
 * total energy  :  -103.8141514 Eh     change       -0.1089934E-03 Eh
   gradient norm :     0.0037180 Eh/α   predicted    -0.7550134E-04 ( -30.73%)
   displ. norm   :     0.3493305 α      lambda       -0.2007970E-03
   maximum displ.:     0.1982196 α      in ANC's #1, #4, #3, ...

........................................................................
.............................. CYCLE   33 ..............................
........................................................................

 iter      E             dE          RMSdq      gap      omega  full diag
   1   -105.4174905 -0.105417E+03  0.400E-02    2.73       0.0  T
   2   -105.4174918 -0.127479E-05  0.228E-02    2.73       1.0  T
   3   -105.4174916  0.192273E-06  0.442E-03    2.73       2.6  T
   4   -105.4174919 -0.292016E-06  0.222E-03    2.73       5.2  T
   5   -105.4174920 -0.117505E-06  0.908E-04    2.73      12.6  T
   6   -105.4174920 -0.423457E-07  0.398E-04    2.73      28.8  T
     SCC iter.                  ...        0 min,  0.812 sec
     gradient                   ...        0 min,  0.169 sec
 * total energy  :  -103.8143002 Eh     change       -0.1487539E-03 Eh
   gradient norm :     0.0030633 Eh/α   predicted    -0.1126528E-03 ( -24.27%)
   displ. norm   :     0.4737684 α      lambda       -0.1634531E-03
   maximum displ.:     0.2690456 α      in ANC's #1, #4, #3, ...

........................................................................
.............................. CYCLE   34 ..............................
........................................................................

 iter      E             dE          RMSdq      gap      omega  full diag
   1   -105.4172037 -0.105417E+03  0.493E-02    2.74       0.0  T
   2   -105.4172050 -0.127130E-05  0.285E-02    2.74       1.0  T
   3   -105.4172046  0.422562E-06  0.484E-03    2.74       2.4  T
   4   -105.4172051 -0.572163E-06  0.254E-03    2.74       4.5  T
   5   -105.4172053 -0.194235E-06  0.101E-03    2.74      11.4  T
   6   -105.4172054 -0.210093E-07  0.573E-04    2.74      20.0  T
   7   -105.4172054 -0.377138E-08  0.374E-04    2.74      30.7  T
     SCC iter.                  ...        0 min,  0.958 sec
     gradient                   ...        0 min,  0.111 sec
 * total energy  :  -103.8144300 Eh     change       -0.1298346E-03 Eh
   gradient norm :     0.0037390 Eh/α   predicted    -0.1000762E-03 ( -22.92%)
   displ. norm   :     0.5428262 α      lambda       -0.1436046E-03
   maximum displ.:     0.3093608 α      in ANC's #1, #4, #3, ...

........................................................................
.............................. CYCLE   35 ..............................
........................................................................

 iter      E             dE          RMSdq      gap      omega  full diag
   1   -105.4153461 -0.105415E+03  0.558E-02    2.74       0.0  T
   2   -105.4153485 -0.236944E-05  0.320E-02    2.74       1.0  T
   3   -105.4153476  0.886919E-06  0.661E-03    2.74       1.7  T
   4   -105.4153487 -0.116516E-05  0.336E-03    2.74       3.4  T
   5   -105.4153490 -0.287897E-06  0.142E-03    2.74       8.1  T
   6   -105.4153491 -0.414036E-07  0.797E-04    2.74      14.4  T
   7   -105.4153491 -0.219808E-08  0.527E-04    2.74      21.8  T
     SCC iter.                  ...        0 min,  0.846 sec
     gradient                   ...        0 min,  0.113 sec
 * total energy  :  -103.8145313 Eh     change       -0.1012729E-03 Eh
   gradient norm :     0.0049793 Eh/α   predicted    -0.9296066E-04 (  -8.21%)
   displ. norm   :     0.3811600 α      lambda       -0.1258217E-03
   maximum displ.:     0.2255127 α      in ANC's #1, #4, #3, ...

........................................................................
.............................. CYCLE   36 ..............................
........................................................................

 iter      E             dE          RMSdq      gap      omega  full diag
   1   -105.4172323 -0.105417E+03  0.404E-02    2.74       0.0  T
   2   -105.4172336 -0.126894E-05  0.230E-02    2.74       1.0  T
   3   -105.4172330  0.571619E-06  0.532E-03    2.74       2.2  T
   4   -105.4172338 -0.800759E-06  0.245E-03    2.74       4.7  T
   5   -105.4172339 -0.108024E-06  0.116E-03    2.74       9.9  T
   6   -105.4172340 -0.280128E-07  0.666E-04    2.74      17.2  T
   7   -105.4172340 -0.141033E-08  0.426E-04    2.74      26.9  T
     SCC iter.                  ...        0 min,  0.674 sec
     gradient                   ...        0 min,  0.111 sec
 * total energy  :  -103.8146160 Eh     change       -0.8478094E-04 Eh
   gradient norm :     0.0028070 Eh/α   predicted    -0.7205149E-04 ( -15.01%)
   displ. norm   :     0.3867819 α      lambda       -0.9093532E-04
   maximum displ.:     0.2278925 α      in ANC's #1, #4, #3, ...

........................................................................
.............................. CYCLE   37 ..............................
........................................................................

 iter      E             dE          RMSdq      gap      omega  full diag
   1   -105.4173431 -0.105417E+03  0.402E-02    2.73       0.0  T
   2   -105.4173446 -0.145155E-05  0.223E-02    2.73       1.0  T
   3   -105.4173441  0.469795E-06  0.560E-03    2.73       2.0  T
   4   -105.4173447 -0.613193E-06  0.293E-03    2.73       3.9  T
   5   -105.4173449 -0.208164E-06  0.113E-03    2.73      10.2  T
   6   -105.4173450 -0.362863E-07  0.678E-04    2.73      16.9  T
   7   -105.4173450 -0.103189E-08  0.430E-04    2.73      26.7  T
     SCC iter.                  ...        0 min,  1.081 sec
     gradient                   ...        0 min,  0.166 sec
 * total energy  :  -103.8146844 Eh     change       -0.6835964E-04 Eh
   gradient norm :     0.0027156 Eh/α   predicted    -0.5227391E-04 ( -23.53%)
   displ. norm   :     0.3554246 α      lambda       -0.8979969E-04
   maximum displ.:     0.2066227 α      in ANC's #1, #4, #7, ...

........................................................................
.............................. CYCLE   38 ..............................
........................................................................

 iter      E             dE          RMSdq      gap      omega  full diag
   1   -105.4189357 -0.105419E+03  0.378E-02    2.73       0.0  T
   2   -105.4189369 -0.123688E-05  0.205E-02    2.73       1.0  T
   3   -105.4189368  0.129323E-06  0.472E-03    2.73       2.4  T
   4   -105.4189369 -0.143767E-06  0.261E-03    2.73       4.4  T
   5   -105.4189372 -0.262796E-06  0.814E-04    2.73      14.1  T
   6   -105.4189372 -0.936427E-08  0.528E-04    2.73      21.7  T
     SCC iter.                  ...        0 min,  0.693 sec
     gradient                   ...        0 min,  0.172 sec
 * total energy  :  -103.8147506 Eh     change       -0.6615751E-04 Eh
   gradient norm :     0.0029848 Eh/α   predicted    -0.5057696E-04 ( -23.55%)
   displ. norm   :     0.4402227 α      lambda       -0.7524993E-04
   maximum displ.:     0.2490152 α      in ANC's #1, #4, #3, ...

........................................................................
.............................. CYCLE   39 ..............................
........................................................................

 iter      E             dE          RMSdq      gap      omega  full diag
   1   -105.4175657 -0.105418E+03  0.448E-02    2.74       0.0  T
   2   -105.4175676 -0.188476E-05  0.241E-02    2.74       1.0  T
   3   -105.4175676  0.113569E-07  0.542E-03    2.74       2.1  T
   4   -105.4175676 -0.587967E-07  0.282E-03    2.74       4.1  T
   5   -105.4175679 -0.300408E-06  0.941E-04    2.74      12.2  T
   6   -105.4175679 -0.165644E-07  0.559E-04    2.74      20.5  T
     SCC iter.                  ...        0 min,  1.007 sec
     gradient                   ...        0 min,  0.168 sec
 * total energy  :  -103.8148006 Eh     change       -0.4999136E-04 Eh
   gradient norm :     0.0032410 Eh/α   predicted    -0.4491689E-04 ( -10.15%)
   displ. norm   :     0.2399360 α      lambda       -0.7517176E-04
   maximum displ.:     0.1212903 α      in ANC's #4, #1, #7, ...

........................................................................
.............................. CYCLE   40 ..............................
........................................................................

 iter      E             dE          RMSdq      gap      omega  full diag
   1   -105.4200738 -0.105420E+03  0.302E-02    2.74       0.0  T
   2   -105.4200752 -0.143209E-05  0.160E-02    2.74       1.0  T
   3   -105.4200751  0.146362E-06  0.459E-03    2.74       2.5  T
   4   -105.4200754 -0.300432E-06  0.208E-03    2.74       5.5  T
   5   -105.4200755 -0.768978E-07  0.703E-04    2.74      16.3  T
   6   -105.4200755 -0.240558E-07  0.233E-04    2.74      49.2  T
     SCC iter.                  ...        0 min,  0.685 sec
     gradient                   ...        0 min,  0.113 sec
 * total energy  :  -103.8148357 Eh     change       -0.3517714E-04 Eh
   gradient norm :     0.0035395 Eh/α   predicted    -0.3975034E-04 (  13.00%)
   displ. norm   :     0.1867877 α      lambda       -0.3514404E-04
   maximum displ.:     0.1021974 α      in ANC's #1, #4, #7, ...

........................................................................
.............................. CYCLE   41 ..............................
........................................................................

 iter      E             dE          RMSdq      gap      omega  full diag
   1   -105.4191528 -0.105419E+03  0.215E-02    2.74       0.0  T
   2   -105.4191534 -0.577483E-06  0.116E-02    2.74       1.0  T
   3   -105.4191534  0.175782E-07  0.273E-03    2.74       4.2  T
   4   -105.4191534 -0.490167E-07  0.151E-03    2.74       7.6  T
   5   -105.4191535 -0.722678E-07  0.478E-04    2.74      24.0  T
   6   -105.4191535 -0.583017E-08  0.266E-04    2.74      43.1  T
     SCC iter.                  ...        0 min,  0.561 sec
     gradient                   ...        0 min,  0.111 sec
 * total energy  :  -103.8148611 Eh     change       -0.2538775E-04 Eh
   gradient norm :     0.0020721 Eh/α   predicted    -0.1818806E-04 ( -28.36%)
   displ. norm   :     0.1619057 α      lambda       -0.3354900E-04
   maximum displ.:     0.0872568 α      in ANC's #4, #1, #7, ...

........................................................................
.............................. CYCLE   42 ..............................
........................................................................

 iter      E             dE          RMSdq      gap      omega  full diag
   1   -105.4186330 -0.105419E+03  0.211E-02    2.75       0.0  T
   2   -105.4186335 -0.493280E-06  0.116E-02    2.75       1.0  T
   3   -105.4186334  0.871612E-07  0.271E-03    2.75       4.2  T
   4   -105.4186336 -0.123656E-06  0.148E-03    2.75       7.8  T
   5   -105.4186336 -0.682561E-07  0.447E-04    2.75      25.6  T
   6   -105.4186336 -0.263631E-08  0.232E-04    2.75      49.5  T
     SCC iter.                  ...        0 min,  0.673 sec
     gradient                   ...        0 min,  0.113 sec
 * total energy  :  -103.8148844 Eh     change       -0.2323788E-04 Eh
   gradient norm :     0.0017775 Eh/α   predicted    -0.1721600E-04 ( -25.91%)
   displ. norm   :     0.1943088 α      lambda       -0.2766542E-04
   maximum displ.:     0.1064288 α      in ANC's #4, #1, #7, ...
 * RMSD in coord.:     0.6572714 α      energy gain  -0.2461014E-02 Eh

generating ANC from exact Hessian ...
Using Lindh-Hessian (1995)
 Shifting diagonal of input Hessian by    9.9073472480252223E-003
 Lowest  eigenvalues of input Hessian
    0.000000    0.000000    0.000000    0.000000    0.000000    0.000000
    0.010000    0.010069    0.010164    0.010175    0.010364    0.010508
    0.010693    0.011071    0.011143    0.011418    0.011632    0.011985
 Highest eigenvalues
    2.003553    2.017318    2.022202    2.032902    2.043226    2.068017


........................................................................
.............................. CYCLE   43 ..............................
........................................................................

 iter      E             dE          RMSdq      gap      omega  full diag
   1   -105.4196110 -0.105420E+03  0.292E-02    2.75       0.0  T
   2   -105.4196118 -0.807580E-06  0.161E-02    2.75       1.0  T
   3   -105.4196117  0.163648E-06  0.349E-03    2.75       3.3  T
   4   -105.4196119 -0.250606E-06  0.191E-03    2.75       6.0  T
   5   -105.4196121 -0.118439E-06  0.499E-04    2.75      23.0  T
   6   -105.4196121 -0.445432E-08  0.273E-04    2.75      42.1  T
     SCC iter.                  ...        0 min,  0.913 sec
     gradient                   ...        0 min,  0.113 sec
 * total energy  :  -103.8149043 Eh     change       -0.1997379E-04 Eh
   gradient norm :     0.0027544 Eh/α   predicted     0.0000000E+00 (-100.00%)
   displ. norm   :     0.0302451 α      lambda       -0.2322741E-04
   maximum displ.:     0.0176565 α      in ANC's #31, #6, #13, ...

........................................................................
.............................. CYCLE   44 ..............................
........................................................................

 iter      E             dE          RMSdq      gap      omega  full diag
   1   -105.4193682 -0.105419E+03  0.684E-03    2.75       0.0  T
   2   -105.4193683 -0.521875E-07  0.395E-03    2.75       2.9  T
   3   -105.4193682  0.106123E-07  0.850E-04    2.75      13.5  T
   4   -105.4193683 -0.177903E-07  0.343E-04    2.75      33.4  T
     SCC iter.                  ...        0 min,  0.448 sec
     gradient                   ...        0 min,  0.142 sec
 * total energy  :  -103.8149244 Eh     change       -0.2003908E-04 Eh
   gradient norm :     0.0014887 Eh/α   predicted    -0.1221049E-04 ( -39.07%)
   displ. norm   :     0.1517861 α      lambda       -0.5282237E-04
   maximum displ.:     0.0943198 α      in ANC's #31, #13, #27, ...

........................................................................
.............................. CYCLE   45 ..............................
........................................................................

 iter      E             dE          RMSdq      gap      omega  full diag
   1   -105.4183359 -0.105418E+03  0.289E-02    2.74       0.0  T
   2   -105.4183366 -0.699504E-06  0.164E-02    2.74       1.0  T
   3   -105.4183363  0.365860E-06  0.379E-03    2.74       3.0  T
   4   -105.4183367 -0.437202E-06  0.183E-03    2.74       6.3  T
   5   -105.4183368 -0.988541E-07  0.627E-04    2.74      18.3  T
   6   -105.4183368 -0.977465E-08  0.304E-04    2.74      37.7  T
     SCC iter.                  ...        0 min,  0.728 sec
     gradient                   ...        0 min,  0.124 sec
 * total energy  :  -103.8149579 Eh     change       -0.3357619E-04 Eh
   gradient norm :     0.0037139 Eh/α   predicted    -0.2668296E-04 ( -20.53%)
   displ. norm   :     0.0402713 α      lambda       -0.2367803E-04
   maximum displ.:     0.0240289 α      in ANC's #31, #2, #8, ...

........................................................................
.............................. CYCLE   46 ..............................
........................................................................

 iter      E             dE          RMSdq      gap      omega  full diag
   1   -105.4184216 -0.105418E+03  0.111E-02    2.74       0.0  T
   2   -105.4184218 -0.215001E-06  0.524E-03    2.74       2.2  T
   3   -105.4184218  0.146729E-07  0.178E-03    2.74       6.4  T
   4   -105.4184219 -0.522412E-07  0.788E-04    2.74      14.6  T
   5   -105.4184219  0.332719E-09  0.351E-04    2.74      32.7  T
     SCC iter.                  ...        0 min,  0.623 sec
     gradient                   ...        0 min,  0.112 sec
 * total energy  :  -103.8149769 Eh     change       -0.1893992E-04 Eh
   gradient norm :     0.0031708 Eh/α   predicted    -0.1185969E-04 ( -37.38%)
   displ. norm   :     0.1381977 α      lambda       -0.6478119E-04
   maximum displ.:     0.0871037 α      in ANC's #31, #2, #8, ...

........................................................................
.............................. CYCLE   47 ..............................
........................................................................

 iter      E             dE          RMSdq      gap      omega  full diag
   1   -105.4187351 -0.105419E+03  0.221E-02    2.75       0.0  T
   2   -105.4187355 -0.433964E-06  0.122E-02    2.74       1.0  T
   3   -105.4187354  0.711664E-07  0.298E-03    2.74       3.8  T
   4   -105.4187356 -0.109844E-06  0.127E-03    2.74       9.0  T
   5   -105.4187356 -0.419740E-07  0.363E-04    2.74      31.6  T
   6   -105.4187356 -0.553079E-08  0.140E-04    2.74      82.0  T
     SCC iter.                  ...        0 min,  0.672 sec
     gradient                   ...        0 min,  0.112 sec
 * total energy  :  -103.8150211 Eh     change       -0.4422733E-04 Eh
   gradient norm :     0.0020274 Eh/α   predicted    -0.3301090E-04 ( -25.36%)
   displ. norm   :     0.1566214 α      lambda       -0.4150864E-04
   maximum displ.:     0.1006068 α      in ANC's #31, #2, #27, ...

........................................................................
.............................. CYCLE   48 ..............................
........................................................................

 iter      E             dE          RMSdq      gap      omega  full diag
   1   -105.4186075 -0.105419E+03  0.213E-02    2.74       0.0  T
   2   -105.4186079 -0.400035E-06  0.122E-02    2.75       1.0  T
   3   -105.4186078  0.522364E-07  0.259E-03    2.75       4.4  T
   4   -105.4186079 -0.898528E-07  0.106E-03    2.75      10.9  T
   5   -105.4186079 -0.222659E-07  0.523E-04    2.75      22.0  T
   6   -105.4186079 -0.113410E-07  0.214E-04    2.75      53.7  T
     SCC iter.                  ...        0 min,  0.621 sec
     gradient                   ...        0 min,  0.121 sec
 * total energy  :  -103.8150453 Eh     change       -0.2416651E-04 Eh
   gradient norm :     0.0029611 Eh/α   predicted    -0.2126369E-04 ( -12.01%)
   displ. norm   :     0.1085804 α      lambda       -0.3403814E-04
   maximum displ.:     0.0621789 α      in ANC's #31, #2, #8, ...

........................................................................
.............................. CYCLE   49 ..............................
........................................................................

 iter      E             dE          RMSdq      gap      omega  full diag
   1   -105.4188677 -0.105419E+03  0.176E-02    2.75       0.0  T
   2   -105.4188681 -0.432057E-06  0.933E-03    2.75       1.2  T
   3   -105.4188681  0.137980E-07  0.247E-03    2.75       4.6  T
   4   -105.4188681 -0.329563E-07  0.126E-03    2.75       9.1  T
   5   -105.4188682 -0.403500E-07  0.412E-04    2.75      27.8  T
   6   -105.4188682 -0.625867E-08  0.149E-04    2.75      77.0  T
     SCC iter.                  ...        0 min,  0.684 sec
     gradient                   ...        0 min,  0.189 sec
 * total energy  :  -103.8150686 Eh     change       -0.2331267E-04 Eh
   gradient norm :     0.0026035 Eh/α   predicted    -0.1722035E-04 ( -26.13%)
   displ. norm   :     0.1111467 α      lambda       -0.3860061E-04
   maximum displ.:     0.0551076 α      in ANC's #31, #2, #29, ...

........................................................................
.............................. CYCLE   50 ..............................
........................................................................

 iter      E             dE          RMSdq      gap      omega  full diag
   1   -105.4197034 -0.105420E+03  0.153E-02    2.75       0.0  T
   2   -105.4197037 -0.346471E-06  0.857E-03    2.75       1.3  T
   3   -105.4197036  0.541091E-07  0.239E-03    2.75       4.8  T
   4   -105.4197037 -0.923151E-07  0.980E-04    2.75      11.7  T
   5   -105.4197038 -0.137346E-07  0.435E-04    2.75      26.4  T
     SCC iter.                  ...        0 min,  0.558 sec
     gradient                   ...        0 min,  0.112 sec
 * total energy  :  -103.8150925 Eh     change       -0.2387533E-04 Eh
   gradient norm :     0.0018242 Eh/α   predicted    -0.1954374E-04 ( -18.14%)
   displ. norm   :     0.3567666 α      lambda       -0.3792469E-04
   maximum displ.:     0.2091643 α      in ANC's #31, #2, #8, ...

........................................................................
.............................. CYCLE   51 ..............................
........................................................................

 iter      E             dE          RMSdq      gap      omega  full diag
   1   -105.4168727 -0.105417E+03  0.440E-02    2.76       0.0  T
   2   -105.4168757 -0.294830E-05  0.261E-02    2.76       1.0  T
   3   -105.4168749  0.728212E-06  0.643E-03    2.76       1.8  T
   4   -105.4168759 -0.100151E-05  0.192E-03    2.76       6.0  T
   5   -105.4168761 -0.115257E-06  0.105E-03    2.76      11.0  T
   6   -105.4168761 -0.444588E-07  0.345E-04    2.76      33.3  T
   7   -105.4168761 -0.237308E-08  0.188E-04    2.76      61.1  T
     SCC iter.                  ...        0 min,  0.858 sec
     gradient                   ...        0 min,  0.112 sec
 * total energy  :  -103.8150490 Eh     change        0.4347934E-04 Eh
   gradient norm :     0.0071490 Eh/α   predicted    -0.2003517E-04 (-146.08%)
   displ. norm   :     0.1357879 α      lambda       -0.1289147E-03
   maximum displ.:     0.0882523 α      in ANC's #31, #2, #27, ...

........................................................................
.............................. CYCLE   52 ..............................
........................................................................

 iter      E             dE          RMSdq      gap      omega  full diag
   1   -105.4189590 -0.105419E+03  0.203E-02    2.76       0.0  T
   2   -105.4189600 -0.100156E-05  0.117E-02    2.75       1.0  T
   3   -105.4189601 -0.585644E-08  0.295E-03    2.75       3.9  T
   4   -105.4189601 -0.850838E-07  0.833E-04    2.75      13.8  T
   5   -105.4189601 -0.136453E-08  0.504E-04    2.75      22.7  T
     SCC iter.                  ...        0 min,  0.659 sec
     gradient                   ...        0 min,  0.114 sec
 * total energy  :  -103.8151170 Eh     change       -0.6802215E-04 Eh
   gradient norm :     0.0021746 Eh/α   predicted    -0.6564625E-04 (  -3.49%)
   displ. norm   :     0.0312848 α      lambda       -0.1448705E-04
   maximum displ.:     0.0155683 α      in ANC's #2, #7, #3, ...

........................................................................
.............................. CYCLE   53 ..............................
........................................................................

 iter      E             dE          RMSdq      gap      omega  full diag
   1   -105.4194793 -0.105419E+03  0.652E-03    2.75       0.0  T
   2   -105.4194794 -0.816021E-07  0.347E-03    2.75       3.3  T
   3   -105.4194794  0.761916E-08  0.101E-03    2.75      11.3  T
   4   -105.4194794 -0.804337E-08  0.487E-04    2.75      23.6  T
   5   -105.4194794 -0.976959E-08  0.181E-04    2.75      63.2  T
     SCC iter.                  ...        0 min,  0.608 sec
     gradient                   ...        0 min,  0.143 sec
 * total energy  :  -103.8151271 Eh     change       -0.1005063E-04 Eh
   gradient norm :     0.0010862 Eh/α   predicted    -0.7250620E-05 ( -27.86%)
   displ. norm   :     0.0938699 α      lambda       -0.1024689E-04
   maximum displ.:     0.0489606 α      in ANC's #2, #7, #3, ...

........................................................................
.............................. CYCLE   54 ..............................
........................................................................

 iter      E             dE          RMSdq      gap      omega  full diag
   1   -105.4198873 -0.105420E+03  0.136E-02    2.75       0.0  T
   2   -105.4198874 -0.107831E-06  0.808E-03    2.75       1.4  T
   3   -105.4198873  0.485934E-07  0.138E-03    2.75       8.3  T
   4   -105.4198874 -0.681696E-07  0.461E-04    2.75      24.9  T
   5   -105.4198874 -0.415153E-08  0.211E-04    2.75      54.4  T
     SCC iter.                  ...        0 min,  0.616 sec
     gradient                   ...        0 min,  0.143 sec
 * total energy  :  -103.8151364 Eh     change       -0.9375915E-05 Eh
   gradient norm :     0.0013157 Eh/α   predicted    -0.5144927E-05 ( -45.13%)
   displ. norm   :     0.1033002 α      lambda       -0.6956369E-05
   maximum displ.:     0.0527053 α      in ANC's #2, #31, #7, ...

........................................................................
.............................. CYCLE   55 ..............................
........................................................................

 iter      E             dE          RMSdq      gap      omega  full diag
   1   -105.4195022 -0.105420E+03  0.132E-02    2.75       0.0  T
   2   -105.4195023 -0.868316E-07  0.791E-03    2.75       1.5  T
   3   -105.4195023  0.299302E-07  0.112E-03    2.75      10.2  T
   4   -105.4195023 -0.454992E-07  0.374E-04    2.75      30.7  T
   5   -105.4195024 -0.275138E-08  0.212E-04    2.75      54.1  T
     SCC iter.                  ...        0 min,  0.551 sec
     gradient                   ...        0 min,  0.112 sec
 * total energy  :  -103.8151441 Eh     change       -0.7661463E-05 Eh
   gradient norm :     0.0007056 Eh/α   predicted    -0.3495340E-05 ( -54.38%)
   displ. norm   :     0.0871721 α      lambda       -0.3921228E-05
   maximum displ.:     0.0459475 α      in ANC's #2, #3, #7, ...

........................................................................
.............................. CYCLE   56 ..............................
........................................................................

 iter      E             dE          RMSdq      gap      omega  full diag
   1   -105.4192146 -0.105419E+03  0.112E-02    2.75       0.0  T
   2   -105.4192147 -0.517403E-07  0.665E-03    2.75       1.7  T
   3   -105.4192146  0.209023E-07  0.793E-04    2.75      14.5  T
   4   -105.4192147 -0.299128E-07  0.367E-04    2.75      31.2  T
     SCC iter.                  ...        0 min,  0.417 sec
     gradient                   ...        0 min,  0.117 sec
 * total energy  :  -103.8151477 Eh     change       -0.3642035E-05 Eh
   gradient norm :     0.0004272 Eh/α   predicted    -0.1971528E-05 ( -45.87%)
   displ. norm   :     0.0325644 α      lambda       -0.1739343E-05
   maximum displ.:     0.0175105 α      in ANC's #3, #2, #7, ...

........................................................................
.............................. CYCLE   57 ..............................
........................................................................

 iter      E             dE          RMSdq      gap      omega  full diag
   1   -105.4192798 -0.105419E+03  0.511E-03    2.75       0.0  T
   2   -105.4192799 -0.239305E-07  0.264E-03    2.75       4.3  T
   3   -105.4192799  0.557876E-08  0.663E-04    2.75      17.3  T
   4   -105.4192799 -0.603391E-08  0.344E-04    2.75      33.4  T
     SCC iter.                  ...        0 min,  0.423 sec
     gradient                   ...        0 min,  0.111 sec
 * total energy  :  -103.8151499 Eh     change       -0.2198077E-05 Eh
   gradient norm :     0.0002938 Eh/α   predicted    -0.8730211E-06 ( -60.28%)
   displ. norm   :     0.0591221 α      lambda       -0.3189858E-05
   maximum displ.:     0.0322687 α      in ANC's #3, #2, #7, ...

........................................................................
.............................. CYCLE   58 ..............................
........................................................................

 iter      E             dE          RMSdq      gap      omega  full diag
   1   -105.4193591 -0.105419E+03  0.923E-03    2.75       0.0  T
   2   -105.4193592 -0.806220E-07  0.486E-03    2.75       2.4  T
   3   -105.4193592  0.138233E-07  0.121E-03    2.75       9.5  T
   4   -105.4193592 -0.202071E-07  0.572E-04    2.75      20.1  T
   5   -105.4193592 -0.952438E-08  0.144E-04    2.75      79.6  T
     SCC iter.                  ...        0 min,  0.510 sec
     gradient                   ...        0 min,  0.112 sec
 * total energy  :  -103.8151531 Eh     change       -0.3186841E-05 Eh
   gradient norm :     0.0003176 Eh/α   predicted    -0.1598078E-05 ( -49.85%)
   displ. norm   :     0.0375701 α      lambda       -0.1160743E-05
   maximum displ.:     0.0206020 α      in ANC's #3, #2, #7, ...

........................................................................
.............................. CYCLE   59 ..............................
........................................................................

 iter      E             dE          RMSdq      gap      omega  full diag
   1   -105.4193354 -0.105419E+03  0.592E-03    2.75       0.0  T
[...]
        95        2.0000           -0.4920024             -13.3881
        96        2.0000           -0.4842051             -13.1759
        97        2.0000           -0.4748277             -12.9207 (HOMO)
        98                         -0.3737522             -10.1703 (LUMO)
        99                         -0.3456451              -9.4055
       100                         -0.3313197              -9.0157
       101                         -0.3294663              -8.9652
       102                         -0.3280594              -8.9269
       103                         -0.3260683              -8.8728
       104                         -0.3245209              -8.8307
       105                         -0.3213722              -8.7450
       106                         -0.2831030              -7.7036
       107                         -0.2610113              -7.1025
       108                         -0.2500718              -6.8048
       ...                                ...                  ...
       202                          0.9773128              26.5940
      -------------------------------------------------------------
                  HL-Gap            0.1010755 Eh            2.7504 eV
             Fermi-level           -0.4242899 Eh          -11.5455 eV

     #   Z          covCN         q      C6AA      α(0)
     1   6 C        3.754    -0.129    23.025     6.842
     2   6 C        3.879     0.042    19.816     6.329
     3   6 C        3.756    -0.123    22.903     6.823
     4   7 N        2.678    -0.145    24.133     7.296
     5   6 C        3.948     0.048    19.701     6.307
     6   6 C        3.754    -0.119    22.840     6.815
     7   6 C        3.755    -0.118    22.816     6.811
     8  15 P        4.466     0.294   147.817    21.840
     9  16 S        1.899    -0.071   144.020    20.199
    10  16 S        2.056    -0.050   143.126    20.135
    11   6 C        2.972     0.038    27.139     8.545
    12   6 C        2.944    -0.035    28.870     8.812
    13   6 C        2.922    -0.023    28.578     8.767
    14   6 C        2.919    -0.024    28.607     8.771
    15   6 C        2.921    -0.023    28.576     8.766
    16   6 C        2.972    -0.034    28.850     8.811
    17   7 N        2.681    -0.127    23.757     7.239
    18   6 C        3.830    -0.030    21.079     6.532
    19   6 C        3.061     0.053    26.758     8.483
    20   6 C        2.925    -0.054    29.351     8.885
    21   6 C        2.921    -0.030    28.745     8.792
    22   6 C        2.916    -0.038    28.935     8.821
    23   6 C        3.027     0.014    27.665     8.628
    24   6 C        3.013    -0.010    28.251     8.719
    25   6 C        3.970     0.019    20.190     6.384
    26   6 C        3.854    -0.059    21.596     6.610
    27   6 C        3.830    -0.065    21.723     6.632
    28   6 C        3.854    -0.056    21.545     6.602
    29   6 C        3.834    -0.064    21.696     6.627
    30   6 C        3.021     0.014    27.677     8.630
    31   6 C        2.916    -0.035    28.862     8.810
    32   6 C        2.922    -0.026    28.661     8.779
    33   6 C        2.923    -0.046    29.140     8.852
    34   6 C        3.200     0.050    26.330     8.362
    35   6 C        3.033    -0.010    28.222     8.714
    36   7 N        2.682    -0.123    23.684     7.228
    37   6 C        3.772    -0.036    21.249     6.569
    38   1 H        0.925     0.055     2.259     2.350
    39   1 H        0.925     0.060     2.199     2.319
    40   1 H        0.925     0.064     2.151     2.294
    41   1 H        0.924     0.067     2.118     2.276
    42   1 H        0.925     0.055     2.263     2.353
    43   1 H        0.925     0.053     2.288     2.365
    44   1 H        0.925     0.070     2.085     2.258
    45   1 H        0.924     0.051     2.313     2.378
    46   1 H        0.925     0.046     2.369     2.407
    47   1 H        0.925     0.064     2.157     2.297
    48   1 H        0.925     0.059     2.215     2.327
    49   1 H        0.925     0.059     2.206     2.322
    50   1 H        0.925     0.058     2.218     2.329
    51   1 H        0.925     0.043     2.409     2.427
    52   1 H        0.926     0.048     2.342     2.393
    53   1 H        0.926     0.056     2.252     2.347
    54   1 H        0.926     0.057     2.233     2.337
    55   1 H        0.926     0.056     2.250     2.346
    56   1 H        0.926     0.045     2.379     2.412
    57   1 H        0.924     0.062     2.172     2.304
    58   1 H        0.925     0.059     2.216     2.328
    59   1 H        0.925     0.057     2.236     2.338
    60   1 H        0.926     0.042     2.428     2.437
    61   1 H        0.926     0.053     2.284     2.363
    62   1 H        0.926     0.055     2.257     2.349
    63   1 H        0.924     0.035     2.511     2.478
    64   1 H        0.925     0.050     2.316     2.380
    65   1 H        0.925     0.055     2.255     2.349
    66   1 H        0.924     0.059     2.208     2.324
    67   1 H        0.925     0.048     2.344     2.394
    68   1 H        0.924     0.034     2.530     2.487
    69   1 H        0.924     0.059     2.215     2.327
    70   1 H        0.925     0.053     2.279     2.361
    71   1 H        0.926     0.056     2.249     2.345
    72   1 H        0.926     0.056     2.241     2.341
    73   1 H        0.926     0.042     2.421     2.433
    74   1 H        0.924     0.064     2.156     2.296
    75   1 H        0.924     0.061     2.184     2.311
    76   1 H        0.925     0.063     2.170     2.303

 Mol. C6AA /au·bohr⁶  :      70220.922939
 Mol. C8AA /au·bohr⁸  :    1869438.173700
 Mol. α(0) /au        :        418.552291


Wiberg/Mayer (AO) data.
largest (>0.10) Wiberg bond orders for each atom

 ---------------------------------------------------------------------------
     #   Z sym  total        # sym  WBO       # sym  WBO       # sym  WBO
 ---------------------------------------------------------------------------
     1   6 C    3.990 --     2 C    1.004    38 H    0.980    40 H    0.980
                            39 H    0.967
     2   6 C    3.957 --     3 C    1.009     1 C    1.004    41 H    0.953
                             4 N    0.939
     3   6 C    3.987 --     2 C    1.009    43 H    0.982    44 H    0.978
                            42 H    0.960
     4   7 N    3.399 --     8 P    1.245     2 C    0.939     5 C    0.937
     5   6 C    3.959 --     7 C    1.005     6 C    1.002    45 H    0.939
                             4 N    0.937
     6   6 C    3.986 --     5 C    1.002    47 H    0.979    48 H    0.978
                            46 H    0.977
     7   6 C    3.992 --     5 C    1.005    50 H    0.981    49 H    0.980
                            51 H    0.980
     8  15 P    5.132 --     4 N    1.245    36 N    1.243    17 N    1.233
                             9 S    0.971
     9  16 S    2.455 --    10 S    1.168     8 P    0.971
    10  16 S    2.387 --     9 S    1.168    11 C    0.986
    11   6 C    3.951 --    12 C    1.405    16 C    1.394    10 S    0.986
                            14 C    0.102
    12   6 C    3.989 --    13 C    1.440    11 C    1.405    52 H    0.964
                            15 C    0.109
    13   6 C    3.990 --    12 C    1.440    14 C    1.436    53 H    0.968
                            16 C    0.109
    14   6 C    3.984 --    13 C    1.436    15 C    1.435    54 H    0.969
                            11 C    0.102
    15   6 C    3.987 --    16 C    1.443    14 C    1.435    55 H    0.968
                            12 C    0.109
    16   6 C    3.989 --    15 C    1.443    11 C    1.394    56 H    0.967
                            13 C    0.109
    17   7 N    3.416 --     8 P    1.233    18 C    0.973    19 C    0.957
    18   6 C    3.963 --    57 H    0.976    17 N    0.973    59 H    0.972
                            58 H    0.965
    19   6 C    3.950 --    24 C    1.405    20 C    1.370    17 N    0.957
    20   6 C    3.986 --    21 C    1.459    19 C    1.370    60 H    0.960
                            23 C    0.106
    21   6 C    3.986 --    20 C    1.459    22 C    1.415    61 H    0.969
                            24 C    0.102
    22   6 C    3.988 --    23 C    1.443    21 C    1.415    62 H    0.967
    23   6 C    3.985 --    22 C    1.443    24 C    1.347    27 C    1.016
                            20 C    0.106
    24   6 C    3.983 --    19 C    1.405    23 C    1.347    25 C    0.990
                            21 C    0.102
    25   6 C    3.989 --    35 C    0.990    24 C    0.990    28 C    0.959
                            26 C    0.956
    26   6 C    3.993 --    27 C    1.003    63 H    0.978    64 H    0.977
                            25 C    0.956
    27   6 C    3.995 --    23 C    1.016    26 C    1.003    65 H    0.966
                            66 H    0.956
    28   6 C    3.994 --    29 C    1.002    68 H    0.978    67 H    0.978
                            25 C    0.959
    29   6 C    3.995 --    30 C    1.015    28 C    1.002    70 H    0.966
                            69 H    0.957
    30   6 C    3.985 --    31 C    1.443    35 C    1.347    29 C    1.015
                            33 C    0.107
    31   6 C    3.988 --    30 C    1.443    32 C    1.414    71 H    0.967
    32   6 C    3.987 --    33 C    1.457    31 C    1.414    72 H    0.969
                            35 C    0.103
    33   6 C    3.989 --    32 C    1.457    34 C    1.375    73 H    0.965
                            30 C    0.107
    34   6 C    3.951 --    35 C    1.404    33 C    1.375    36 N    0.951
    35   6 C    3.983 --    34 C    1.404    30 C    1.347    25 C    0.990
                            32 C    0.103
    36   7 N    3.421 --     8 P    1.243    37 C    0.972    34 C    0.951
    37   6 C    3.960 --    74 H    0.978    75 H    0.976    36 N    0.972
                            76 H    0.963
    38   1 H    0.997 --     1 C    0.980
    39   1 H    0.996 --     1 C    0.967
    40   1 H    0.995 --     1 C    0.980
    41   1 H    0.994 --     2 C    0.953
    42   1 H    0.997 --     3 C    0.960
    43   1 H    0.997 --     3 C    0.982
    44   1 H    0.994 --     3 C    0.978
    45   1 H    0.997 --     5 C    0.939
    46   1 H    0.998 --     6 C    0.977
    47   1 H    0.995 --     6 C    0.979
    48   1 H    0.996 --     6 C    0.978
    49   1 H    0.996 --     7 C    0.980
    50   1 H    0.996 --     7 C    0.981
    51   1 H    0.998 --     7 C    0.980
    52   1 H    0.998 --    12 C    0.964
    53   1 H    0.997 --    13 C    0.968
    54   1 H    0.996 --    14 C    0.969
    55   1 H    0.996 --    15 C    0.968
    56   1 H    0.998 --    16 C    0.967
    57   1 H    0.995 --    18 C    0.976
    58   1 H    0.996 --    18 C    0.965
    59   1 H    0.996 --    18 C    0.972
    60   1 H    0.997 --    20 C    0.960
    61   1 H    0.996 --    21 C    0.969
    62   1 H    0.996 --    22 C    0.967
    63   1 H    0.999 --    26 C    0.978
    64   1 H    0.997 --    26 C    0.977
    65   1 H    0.996 --    27 C    0.966
    66   1 H    0.996 --    27 C    0.956
    67   1 H    0.997 --    28 C    0.978
    68   1 H    0.999 --    28 C    0.978
    69   1 H    0.996 --    29 C    0.957
    70   1 H    0.996 --    29 C    0.966
    71   1 H    0.996 --    31 C    0.967
    72   1 H    0.996 --    32 C    0.969
    73   1 H    0.997 --    33 C    0.965
    74   1 H    0.995 --    37 C    0.978
    75   1 H    0.996 --    37 C    0.976
    76   1 H    0.995 --    37 C    0.963
 ---------------------------------------------------------------------------

Topologies differ in total number of bonds
Writing topology from bond orders to xtbtopo.mol

molecular dipole:
                 x           y           z       tot (Debye)
 q only:       -0.534      -0.742      -0.352
   full:       -0.459      -0.785      -0.507       2.647
molecular quadrupole (traceless):
                xx          xy          yy          xz          yz          zz
 q only:        7.386       4.964       7.920       4.069      -3.595     -15.306
  q+dip:        8.591       6.701       6.096       4.052      -3.438     -14.687
   full:        6.096       5.179       9.055       4.742      -3.658     -15.151

           -------------------------------------------------
          |                Geometry Summary                 |
           -------------------------------------------------

      molecular mass/u    :      548.7659486
   center of mass at/Å    :        0.0341688       0.3315164       0.1874803
  moments of inertia/u·Å² :        0.4404622E+04   0.4797215E+04   0.5969440E+04
rotational constants/cm⁻¹ :        0.3827260E-02   0.3514046E-02   0.2823989E-02

 * 73 selected distances

     #   Z          #   Z                                           value/Å
     1   6 C        2   6 C                                       1.5273134
     2   6 C        3   6 C                                       1.5225409
     2   6 C        4   7 N                                       1.4723279
     4   7 N        5   6 C                                       1.4745757
     5   6 C        6   6 C                                       1.5291151
     5   6 C        7   6 C                                       1.5264417
     4   7 N        8  15 P                                       1.6557352
     8  15 P        9  16 S                                       2.1398620 (max)
     9  16 S       10  16 S                                       2.0397599
    11   6 C       12   6 C                                       1.3849684
    12   6 C       13   6 C                                       1.3838798
    13   6 C       14   6 C                                       1.3853175
    14   6 C       15   6 C                                       1.3854956
    11   6 C       16   6 C                                       1.3875732
    15   6 C       16   6 C                                       1.3834153
     8  15 P       17   7 N                                       1.6618575
    17   7 N       18   6 C                                       1.4585062
    19   6 C       20   6 C                                       1.3977384
    20   6 C       21   6 C                                       1.3803469
    21   6 C       22   6 C                                       1.3860365
    22   6 C       23   6 C                                       1.3777129
    19   6 C       24   6 C                                       1.3855929
    23   6 C       24   6 C                                       1.4018071
    26   6 C       27   6 C                                       1.5292762
    28   6 C       29   6 C                                       1.5367950
    30   6 C       31   6 C                                       1.3786825
    31   6 C       32   6 C                                       1.3894653
    32   6 C       33   6 C                                       1.3823315
    33   6 C       34   6 C                                       1.3937494
    30   6 C       35   6 C                                       1.3972535
    34   6 C       35   6 C                                       1.3784567
     8  15 P       36   7 N                                       1.6497831
    34   6 C       36   7 N                                       1.4349545
    36   7 N       37   6 C                                       1.4492802
     1   6 C       38   1 H                                       1.0858599
     1   6 C       39   1 H                                       1.0865534
     1   6 C       40   1 H                                       1.0869679
     2   6 C       41   1 H                                       1.0917123
     3   6 C       42   1 H                                       1.0889448
     3   6 C       43   1 H                                       1.0868135
     3   6 C       44   1 H                                       1.0865587
     5   6 C       45   1 H                                       1.0952388
     6   6 C       46   1 H                                       1.0866780
     6   6 C       47   1 H                                       1.0867900
     6   6 C       48   1 H                                       1.0867144
     7   6 C       49   1 H                                       1.0870770
     7   6 C       50   1 H                                       1.0867961
     7   6 C       51   1 H                                       1.0876463
    12   6 C       52   1 H                                       1.0801943
    13   6 C       53   1 H                                       1.0789200
    14   6 C       54   1 H                                       1.0785933
    15   6 C       55   1 H                                       1.0789072
    16   6 C       56   1 H                                       1.0795507
    18   6 C       57   1 H                                       1.0916452
    18   6 C       58   1 H                                       1.0899506
    18   6 C       59   1 H                                       1.0898019
    20   6 C       60   1 H                                       1.0793049
    21   6 C       61   1 H                                       1.0785834
    22   6 C       62   1 H                                       1.0784879
    26   6 C       63   1 H                                       1.0919543
    26   6 C       64   1 H                                       1.0865403
    27   6 C       65   1 H                                       1.0895313
    27   6 C       66   1 H                                       1.0922496
    28   6 C       67   1 H                                       1.0872537
    28   6 C       68   1 H                                       1.0919133
    29   6 C       69   1 H                                       1.0916814
    29   6 C       70   1 H                                       1.0898756
    31   6 C       71   1 H                                       1.0785588
    32   6 C       72   1 H                                       1.0784447 (min)
    33   6 C       73   1 H                                       1.0806178
    37   6 C       74   1 H                                       1.0914920
    37   6 C       75   1 H                                       1.0922095
    37   6 C       76   1 H                                       1.0866887

 * 6 distinct bonds (by element types)

   Z      Z             #   av. dist./Å        max./Å        min./Å
   1 H    6 C          39     1.0862385     1.0952388     1.0784447
   6 C    6 C          24     1.4221377     1.5367950     1.3777129
   6 C    7 N           5     1.4579289     1.4745757     1.4349545
   7 N   15 P           3     1.6557919     1.6618575     1.6497831
  15 P   16 S           1     2.1398620     2.1398620     2.1398620
  16 S   16 S           1     2.0397599     2.0397599     2.0397599


optimized geometry written to: xtbopt.xyz


           -------------------------------------------------
          | TOTAL ENERGY             -103.815167966494 Eh   |
          | GRADIENT NORM               0.000031021833 Eh/α |
          | HOMO-LUMO GAP               2.750404044679 eV   |
           -------------------------------------------------

------------------------------------------------------------------------
 * finished run on 2024/12/16 at 22:00:27.156     
------------------------------------------------------------------------
 total:
 * wall-time:     0 d,  0 h,  1 min, 26.156 sec
 *  cpu-time:     0 d,  0 h, 11 min, 17.697 sec
 * ratio c/w:     7.866 speedup
 SCF:
 * wall-time:     0 d,  0 h,  0 min,  1.316 sec
 *  cpu-time:     0 d,  0 h,  0 min, 10.473 sec
 * ratio c/w:     7.960 speedup
 ANC optimizer:
 * wall-time:     0 d,  0 h,  1 min, 24.522 sec
 *  cpu-time:     0 d,  0 h, 11 min,  5.677 sec
 * ratio c/w:     7.876 speedup

