76
 energy: -103.785736625955 gnorm: 0.087559707964 xtb: 6.7.1 (edcfbbe)
C           -4.05080600000000       -1.28375900000000       -0.44112800000000
C           -3.07091000000000       -2.27138600000000        0.19738400000000
C           -3.40682800000000       -2.56871600000000        1.66016700000000
N           -1.65055100000000       -1.92395500000000       -0.01299300000000
C           -0.95728300000000       -2.90295200000000       -0.89241600000000
C           -0.87165100000000       -4.34554900000000       -0.35529900000000
C           -1.57565100000000       -2.96770900000000       -2.30050000000000
P           -0.89251100000000       -0.54827900000000        0.55409500000000
S           -2.18070800000000        0.71377600000000        1.70023200000000
S           -1.18218700000000        2.49343400000000        1.94087300000000
C           -1.75088000000000        3.53621000000000        0.61934600000000
C           -3.10807400000000        3.83005600000000        0.44874700000000
C           -3.52350600000000        4.66633700000000       -0.58990000000000
C           -2.58376500000000        5.22119500000000       -1.45755600000000
C           -1.22838800000000        4.94514500000000       -1.28546500000000
C           -0.81308800000000        4.10977000000000       -0.24666900000000
N           -0.22064200000000        0.27144100000000       -0.73876200000000
C           -1.24484600000000        0.90697900000000       -1.57436100000000
C            0.88249200000000       -0.19593100000000       -1.50393500000000
C            0.73524400000000       -0.64578500000000       -2.84132000000000
C            1.76683900000000       -1.25999500000000       -3.57224000000000
C            3.00965900000000       -1.44144800000000       -2.99668000000000
C            3.20007300000000       -0.93939200000000       -1.72336900000000
C            2.17614700000000       -0.26758400000000       -0.99974300000000
C            2.81844800000000        0.40568200000000        0.18539800000000
C            4.02582800000000       -0.54646700000000        0.41844300000000
C            4.49548200000000       -0.96659700000000       -0.97166900000000
C            3.30058400000000        1.83807100000000       -0.18221500000000
C            3.69731400000000        2.49808800000000        1.14177500000000
C            2.74565600000000        1.82820700000000        2.08352300000000
C            2.49103600000000        2.20234900000000        3.39002200000000
C            1.58871200000000        1.43877100000000        4.11453100000000
C            0.92798600000000        0.35705600000000        3.50604800000000
C            1.16107500000000       -0.01872800000000        2.16096800000000
C            2.13663100000000        0.69688800000000        1.48892500000000
N            0.41096400000000       -1.02714500000000        1.49123300000000
C            0.08038600000000       -2.10179700000000        2.42772600000000
H           -3.81507300000000       -1.12089800000000       -1.49740300000000
H           -4.07811000000000       -0.31305000000000        0.05155600000000
H           -5.06897500000000       -1.68801700000000       -0.39962600000000
H           -3.29632400000000       -3.21571300000000       -0.31023500000000
H           -3.34671200000000       -1.69483800000000        2.30793100000000
H           -2.73978700000000       -3.33740900000000        2.06455300000000
H           -4.42895700000000       -2.95668500000000        1.74044800000000
H            0.08245600000000       -2.59078900000000       -0.99756600000000
H           -0.24002200000000       -4.42249900000000        0.52978400000000
H           -0.41577000000000       -4.99933900000000       -1.10884100000000
H           -1.84906600000000       -4.77175700000000       -0.11304300000000
H           -0.87594900000000       -3.44107800000000       -2.99862500000000
H           -2.49853100000000       -3.55717700000000       -2.32137300000000
H           -1.81513100000000       -1.97950900000000       -2.69454900000000
H           -3.85014500000000        3.41155500000000        1.12428200000000
H           -4.57990800000000        4.88809000000000       -0.71738200000000
H           -2.90720500000000        5.87399600000000       -2.26425700000000
H           -0.49290800000000        5.37964200000000       -1.95735000000000
H            0.24691200000000        3.89583700000000       -0.12382800000000
H           -0.80318500000000        1.65151700000000       -2.24742100000000
H           -1.99180800000000        1.43189200000000       -0.98343400000000
H           -1.80913200000000        0.17988200000000       -2.16382000000000
H           -0.21832000000000       -0.57033600000000       -3.35300500000000
H            1.57661200000000       -1.60972300000000       -4.58309900000000
H            3.81250200000000       -1.92882800000000       -3.53867200000000
H            3.69854200000000       -1.43972700000000        0.97206700000000
H            4.84282300000000       -0.10318700000000        0.99822600000000
H            4.94621600000000       -1.96297800000000       -0.95590900000000
H            5.19974600000000       -0.24483400000000       -1.39693800000000
H            4.12544400000000        1.86250900000000       -0.90256300000000
H            2.47360500000000        2.40687800000000       -0.63379700000000
H            4.73199600000000        2.26936900000000        1.41486400000000
H            3.55123000000000        3.58129900000000        1.10424800000000
H            2.98124300000000        3.05974200000000        3.83795000000000
H            1.35582200000000        1.70104900000000        5.14289100000000
H            0.17470600000000       -0.14786100000000        4.10374600000000
H           -0.75524700000000       -1.83957800000000        3.08577100000000
H            0.94549300000000       -2.38902700000000        3.03894400000000
H           -0.20736500000000       -3.00470600000000        1.90226200000000
76
 energy: -103.800703941946 gnorm: 0.033162630519 xtb: 6.7.1 (edcfbbe)
C           -4.04681402414564       -1.27586899284055       -0.43031893098233
C           -3.08334922097846       -2.28042001345252        0.20313075854575
C           -3.40663190060127       -2.55753092158665        1.66902774704558
N           -1.66144923346672       -1.95478162847301       -0.01929702635720
C           -0.94771995232013       -2.90813065576480       -0.90146858280968
C           -0.87337023432582       -4.33702021923958       -0.34397066699862
C           -1.57787441534151       -2.96456158489036       -2.29837507375380
P           -0.86535961957139       -0.59009082289029        0.52384590954556
S           -2.18366860275358        0.71105273935514        1.61402993524570
S           -1.16524572080651        2.47164228090120        1.91079005882898
C           -1.75358151944511        3.52827010386925        0.60001676316237
C           -3.10447045648827        3.82447854358734        0.44596251442315
C           -3.51442668525095        4.65927297795658       -0.58300905358221
C           -2.57997992354706        5.21425974030499       -1.44598579881102
C           -1.23079496478637        4.94020878943495       -1.27528408154963
C           -0.81587782296199        4.09791064770669       -0.25507610218290
N           -0.21300145041969        0.27304492033794       -0.75691672748620
C           -1.25061818248204        0.91359084981755       -1.57042456326424
C            0.89801466992102       -0.20522454500049       -1.51756279955553
C            0.72645838368785       -0.66293196486417       -2.83584926458675
C            1.75050838479060       -1.25185878424413       -3.56304610463619
C            2.99752957092215       -1.43030486483884       -2.99219812965784
C            3.19986088845648       -0.92295464463052       -1.72733909213327
C            2.18842992643217       -0.26344161661296       -1.00465699499280
C            2.82841168385535        0.40866145305048        0.18604159443506
C            4.03591835912557       -0.53263313328303        0.43940945624146
C            4.48316211163839       -0.95917453114567       -0.95878197923439
C            3.31353144426322        1.83099958644179       -0.20432250772460
C            3.68719168359459        2.48508398987587        1.13029026837299
C            2.74720016575461        1.81750098337701        2.08481033800249
C            2.47803563119734        2.18952880125317        3.38403185955628
C            1.56514417112930        1.43184334723358        4.09956872651519
C            0.89518486319885        0.37857576642676        3.49187873942632
C            1.14929856961103        0.00448223860076        2.16212647428251
C            2.13651674672329        0.70355415201100        1.48811614973162
N            0.41932038424031       -1.04322437203364        1.50610031502369
C            0.07402088097043       -2.12213049373430        2.43222373696861
H           -3.80511688332489       -1.12019384413834       -1.48162227516084
H           -4.05458306530283       -0.31196179562330        0.07392696632241
H           -5.05784697038049       -1.68151463347966       -0.38730001345494
H           -3.26443116409712       -3.22280343764821       -0.32074815192899
H           -3.33497580085943       -1.66888615212729        2.29428924826445
H           -2.73875553993881       -3.32329054321510        2.06396653330250
H           -4.42496662566638       -2.93937545492022        1.74288169765055
H            0.08366678581053       -2.55256258150224       -0.99622044498693
H           -0.24580835600266       -4.40804375399651        0.54130477678251
H           -0.42057255514917       -4.97194318184977       -1.10602335853073
H           -1.85114707055354       -4.75532777139690       -0.11136969411322
H           -0.87402360917809       -3.43014482716408       -2.98673420041880
H           -2.49173148260159       -3.55793062401568       -2.30810933428566
H           -1.81656163369168       -1.97641172390507       -2.68223023413416
H           -3.83777958157876        3.40225649262462        1.12078733891116
H           -4.56528417129010        4.88089874946952       -0.70701908425911
H           -2.90269805119603        5.86390577593084       -2.24840240763457
H           -0.49903699149084        5.37571755891380       -1.94145110656307
H            0.23741850984154        3.88915976020945       -0.11948613186089
H           -0.79108748785613        1.64677707183318       -2.23542839865063
H           -1.97783434693943        1.43823954789366       -0.94880774805676
H           -1.81156008471134        0.19289495940572       -2.17108029294984
H           -0.22249938750586       -0.56723524229699       -3.33970400601621
H            1.55905403983602       -1.58944870303647       -4.57169453441955
H            3.79443740820094       -1.92679625954374       -3.52735100868058
H            3.68728674954379       -1.41441857402041        0.98782217865921
H            4.83637699219337       -0.07436968195454        1.01950355942513
H            4.93867587493407       -1.94999083820826       -0.96298775080290
H            5.19673138912819       -0.25332195587436       -1.38844841374807
H            4.13308651874199        1.83526798439447       -0.92228003399270
H            2.47655494788298        2.37963207060035       -0.65036824025365
H            4.72168955762987        2.27311097648329        1.40696862153842
H            3.55481678526572        3.56751911953579        1.11044873632644
H            2.96715993971679        3.04330279779704        3.83125655584578
H            1.34777760116956        1.67587724835069        5.12993693628817
H            0.16607488951097       -0.15042564848833        4.08929301735766
H           -0.75364708236818       -1.85743074306411        3.09667066202559
H            0.94967503393783       -2.36680093167384        3.03684801017504
H           -0.20804067148075       -3.01561433231558        1.88144716097396
76
 energy: -103.804788689924 gnorm: 0.013119104076 xtb: 6.7.1 (edcfbbe)
C           -4.04480954824922       -1.27033859302072       -0.41749125689871
C           -3.09276035770548       -2.28453059188760        0.21077641431336
C           -3.40525986388857       -2.54115416624759        1.67922874372808
N           -1.67137688497197       -1.96803876952674       -0.01911291711937
C           -0.94313164107103       -2.90509244142766       -0.90292538367020
C           -0.86102440522585       -4.32918473510692       -0.34711893719567
C           -1.57143778168686       -2.96471534363853       -2.29693511773103
P           -0.84825415419308       -0.61247665454155        0.49926085838775
S           -2.18863787053323        0.67412200090781        1.57078899909841
S           -1.14294009220707        2.41343298035578        1.86247579998648
C           -1.74568355454987        3.51134476892757        0.58170896157657
C           -3.09500487537832        3.80375910211912        0.44428793587563
C           -3.50483349452585        4.64684111568860       -0.57308916615744
C           -2.57531963535354        5.20750875969147       -1.43425453977787
C           -1.22733327251506        4.93615195384194       -1.26969995516549
C           -0.80803739918065        4.08681754245707       -0.26231753022514
N           -0.20673262218508        0.28429906044049       -0.76770015867179
C           -1.24730119468831        0.93156855652743       -1.57030321492693
C            0.90676345438536       -0.21180638231663       -1.52603297673312
C            0.71881579868787       -0.66832953745696       -2.83410975920588
C            1.73941887761424       -1.24800765078979       -3.55740862665191
C            2.98837340230175       -1.42750568915688       -2.98633338389698
C            3.19897156601159       -0.91802063737028       -1.72479356445421
C            2.19190745944324       -0.26417201465924       -1.00575211120064
C            2.82555068265585        0.40927512141617        0.18440065305793
C            4.03254079261118       -0.52520805633103        0.44923215200247
C            4.47846147288342       -0.95679763268880       -0.94863428162472
C            3.31489176068257        1.82474015931945       -0.21472350650458
C            3.67968042323155        2.48036350622714        1.12086666296267
C            2.73468607760521        1.81703860846496        2.07547598729165
C            2.45488139917182        2.18509515998586        3.37224742928838
C            1.53624679460413        1.42839771290270        4.08303451539517
C            0.86502530535308        0.38603852488730        3.47678850001822
C            1.13375720565447        0.02011100140994        2.15556689234822
C            2.12461194413132        0.70932717717596        1.47953066058819
N            0.41814296209822       -1.05464164582043        1.51225488099272
C            0.07417229225987       -2.13796479698049        2.43655897663696
H           -3.79831760091817       -1.11218314864137       -1.46424208948085
H           -4.02888532860960       -0.31618049760115        0.10197370461616
H           -5.05553260681027       -1.66671187793713       -0.37011764516698
H           -3.25025924415611       -3.22644246737058       -0.31897271970197
H           -3.31828523384614       -1.63398128211394        2.27457634211818
H           -2.73845872066546       -3.30131204910017        2.07808741255806
H           -4.42416933252648       -2.90966636647287        1.76176537907278
H            0.07991953401099       -2.51520063978511       -0.98855482960186
H           -0.24122361272944       -4.39457078268349        0.54138351035985
H           -0.41101106962912       -4.96249148244259       -1.10696229277940
H           -1.84160060233032       -4.73428598894982       -0.11591303277269
H           -0.86739493390153       -3.42132805241159       -2.98623617236513
H           -2.47923545405165       -3.56161647314557       -2.29754959674409
H           -1.81639143636367       -1.97546157791235       -2.66789691876958
H           -3.81876613151011        3.37339879141990        1.12026770372495
H           -4.55334245885747        4.87100207172296       -0.68955481761425
H           -2.90058032753986        5.86083334657811       -2.22864405795902
H           -0.49952059287223        5.38022415747733       -1.93021701954621
H            0.23987783464936        3.87084691763719       -0.12441865943716
H           -0.77469158128016        1.65713269589757       -2.22962026157240
H           -1.95206459267291        1.45779886889271       -0.92547690807390
H           -1.82058355816749        0.22304161107796       -2.17317411323056
H           -0.23472265892053       -0.56984947112930       -3.32162820765728
H            1.54815728852607       -1.58032401528244       -4.56501415902694
H            3.78246958169521       -1.92463511217998       -3.51997580889887
H            3.68089363784345       -1.39694987050179        1.00491423482455
H            4.82071773468012       -0.04731170745145        1.02352880951279
H            4.93654742136666       -1.94513354537299       -0.96163243778718
H            5.19997509726262       -0.25781634037652       -1.37643680384302
H            4.13775440237897        1.80606730422048       -0.92330557095001
H            2.48084356326526        2.36269949739581       -0.67110320759570
H            4.71484392234880        2.27450165010941        1.39999722081495
H            3.55677261294049        3.56308101996953        1.10913605837167
H            2.95060900231768        3.02949574702928        3.82482063462797
H            1.32358268061427        1.66533582379291        5.11311784713815
H            0.12998886947255       -0.14523721796049        4.05883076366873
H           -0.74893220928985       -1.88231278875578        3.10818184468106
H            0.95826065108212       -2.36208537437200        3.03163614461339
H           -0.20426657008337       -3.02062384704969        1.86868408413536
76
 energy: -103.806227866098 gnorm: 0.009398658263 xtb: 6.7.1 (edcfbbe)
C           -4.04411530075566       -1.26966229524685       -0.40716276823207
C           -3.09616230800427       -2.28973026776906        0.21534709259622
C           -3.40176528318991       -2.52333557484526        1.68867909050881
N           -1.67510860195996       -1.97557226597671       -0.01896822094721
C           -0.93704215834314       -2.90230112833992       -0.90436353712560
C           -0.84393059006333       -4.32462900252021       -0.34993008248713
C           -1.56532659791322       -2.96237982230819       -2.29765676662973
P           -0.84535144430515       -0.62413107630764        0.48518124227762
S           -2.17189020085862        0.67266291583704        1.54285045198690
S           -1.10599345510395        2.39419835409620        1.85062329122846
C           -1.72930362120082        3.48193080735900        0.56626125755713
C           -3.08013323392323        3.77110601189233        0.44371316155002
C           -3.49541228531895        4.62853938733112       -0.56057723336804
C           -2.57089701226322        5.20192116750345       -1.41922370338098
C           -1.22092336833677        4.93327903566629       -1.26468470588855
C           -0.79454319381153        4.06961367611390       -0.27171232128054
N           -0.20564296624511        0.29198831939714       -0.76914774257479
C           -1.23983767124951        0.95370967164641       -1.56750775483064
C            0.90664731235705       -0.21561528805083       -1.52865181344890
C            0.71209383232839       -0.67269756465530       -2.83384346026297
C            1.73439376680436       -1.25080719467548       -3.55678221087830
C            2.98397092987555       -1.42872560921383       -2.98462225690262
C            3.19717247309808       -0.92063686740997       -1.72233553188782
C            2.18885951010174       -0.26660086755752       -1.00595881076529
C            2.81737583406698        0.40842121957192        0.18178485788046
C            4.02571886535362       -0.52083091766659        0.45499816513706
C            4.47440819350901       -0.95930995792424       -0.94033400646152
C            3.31277019115139        1.81988642928079       -0.22136289262062
C            3.66766509693662        2.48019987754753        1.11426699452297
C            2.71600446941537        1.82015920252936        2.06619640853667
C            2.43011596963043        2.18522531035349        3.36311090225649
C            1.50311257333776        1.43306940053203        4.06893778885475
C            0.83184696422203        0.39209276304920        3.45983262078974
C            1.11751591515607        0.02399857571249        2.14400401323202
C            2.10895088215447        0.71109870576124        1.46971604793007
N            0.41187672017948       -1.06353810360636        1.50690757227272
C            0.07940330869479       -2.15068443948985        2.43242231534852
H           -3.79817122335716       -1.10613029197588       -1.45238189506090
H           -4.01530058504015       -0.32123115980672        0.12059370691166
H           -5.05812919473213       -1.65528797238190       -0.35602067003268
H           -3.25365470277623       -3.23346323829980       -0.30901810110054
H           -3.30125988740871       -1.60336443062365        2.26226372306306
H           -2.73896238280400       -3.28030046486206        2.09819699999245
H           -4.42414200829414       -2.87754080215183        1.78680951390373
H            0.08012351944785       -2.49448791206472       -0.98540129281116
H           -0.22558014620998       -4.38693177375154        0.53945334038688
H           -0.39379334999364       -4.95775516801887       -1.10860843984992
H           -1.82528411277452       -4.72713502772051       -0.11753246142474
H           -0.85924391952400       -3.41027116004228       -2.99007246000570
H           -2.46760411423043       -3.56722041082571       -2.29508345690739
H           -1.82077728928532       -1.97297667004759       -2.66164522432252
H           -3.79645769899844        3.33153453724484        1.12124130386106
H           -4.54453548735877        4.85458233579565       -0.66824961960047
H           -2.90182389354765        5.86214428830493       -2.20518876939663
H           -0.49745745391755        5.38996290234451       -1.92154758332600
H            0.25277868783970        3.85292443519151       -0.13452109627222
H           -0.75636104754939        1.67390429052897       -2.22445867069831
H           -1.92930938701886        1.48745852501242       -0.91514535607494
H           -1.82868446429563        0.25856786226678       -2.17102551055724
H           -0.24609152140866       -0.57366620799532       -3.31131171838537
H            1.54484208941515       -1.58169876996403       -4.56505206565624
H            3.77701657159856       -1.92560078249881       -3.51887445633019
H            3.67882320925733       -1.38682351655193        1.02107157753164
H            4.80885813278430       -0.02886782034497        1.02415253365550
H            4.93115907880291       -1.94807977160323       -0.95082368935509
H            5.20087260711596       -0.26307012532950       -1.36552439094999
H            4.14342483050113        1.78726232091174       -0.92037483216777
H            2.48670254913948        2.35591218427821       -0.69259470252007
H            4.70218891845987        2.27530295095684        1.39839490016415
H            3.54694773841476        3.56300348272005        1.10048654149053
H            2.92721690939202        3.02568812298412        3.82031630762897
H            1.28729649841901        1.67049444046836        5.09785009881668
H            0.08565306149376       -0.13735709607791        4.02864944187413
H           -0.74108025701929       -1.90483643463860        3.11056001881304
H            0.96972334374290       -2.36707038599270        3.02008954545942
H           -0.19644813380609       -3.02949287305621        1.86032245476114
76
 energy: -103.807326364593 gnorm: 0.007696331856 xtb: 6.7.1 (edcfbbe)
C           -4.04191272176075       -1.26861482837907       -0.39580495086373
C           -3.09679591882477       -2.29276343834987        0.22332172605102
C           -3.39408427375456       -2.49927481940725        1.70276241176880
N           -1.67634336469547       -1.97986633206599       -0.01569279238113
C           -0.93074463046171       -2.89734984562427       -0.90530410418219
C           -0.82308574791883       -4.31996328934360       -0.35551872986602
C           -1.56053145691120       -2.95848870271432       -2.29776894211224
P           -0.84751536948798       -0.62980720777903        0.47483375989689
S           -2.16960813329763        0.64887575466398        1.55099002573005
S           -1.06318852821507        2.35206461237872        1.82125194089671
C           -1.70019804896925        3.46140684599204        0.55803265057666
C           -3.05446906697378        3.73633553752709        0.44750305994364
C           -3.48094990840905        4.60391165019882       -0.54445048845168
C           -2.56405227448429        5.19640072551259       -1.39945746892023
C           -1.21059433702052        4.93302451316525       -1.26020293133487
C           -0.77214245769220        4.05959597419495       -0.28009487778074
N           -0.20497159807768        0.29974118599779       -0.76712451674944
C           -1.22601542286288        0.98251756353057       -1.56447377948069
C            0.90335154564092       -0.21961097756330       -1.52996714577753
C            0.70494356940680       -0.67861093879586       -2.83405310824563
C            1.72940060558871       -1.25796125584990       -3.55662807641705
C            2.97900139410207       -1.43387351445870       -2.98323096167983
C            3.19388512853160       -0.92840530448317       -1.71953010090336
C            2.18356284656452       -0.27068164960645       -1.00651749678278
C            2.80684024934741        0.40635746568264        0.17869422356175
C            4.01683715786807       -0.51797956117287        0.46075197669544
C            4.46813792036022       -0.96721028814937       -0.93104056693611
C            3.30879292472776        1.81474045976402       -0.22756894851712
C            3.64799971669525        2.48349046749238        1.10813953983570
C            2.68926957487058        1.82621946656672        2.05583450523270
C            2.39349629733642        2.19032930722316        3.35158347474549
C            1.45654286268886        1.44405227644953        4.05090836414713
C            0.79059052704140        0.39974124936668        3.43811797943851
C            1.09855146906035        0.02380454674870        2.12865783890165
C            2.09030264070899        0.71149099047549        1.45874116320010
N            0.40366542849213       -1.07212143307905        1.49491763931116
C            0.09111816139821       -2.16574429623436        2.42066775659321
H           -3.79922895319139       -1.09983778287556       -1.44098061772061
H           -4.00280012711622       -0.32438771181883        0.13806908189046
H           -5.05987268774521       -1.64400356127713       -0.34082096475436
H           -3.26091529452360       -3.24107395260459       -0.29015191635879
H           -3.27680197245595       -1.56737747403104        2.25384529401212
H           -2.73830480056144       -3.25536734582422        2.12546933389665
H           -4.42153241582688       -2.83524286997031        1.81975757888672
H            0.08074138940728       -2.47709457416921       -0.98487079359171
H           -0.20010533766055       -4.38073059611749        0.53081817899481
H           -0.37234296073268       -4.95035271706060       -1.11627322624589
H           -1.80210289833186       -4.72703371769994       -0.11847230063805
H           -0.85064419416436       -3.39359134490090       -2.99528851528268
H           -2.45519699951880       -3.57562365323932       -2.29460997232963
H           -1.83114870613223       -1.96989720709987       -2.65496683829950
H           -3.76239125914522        3.27442457854767        1.12007879935602
H           -4.53234176399310        4.82653234487427       -0.64204140633641
H           -2.90424601407586        5.86937394269424       -2.17135786892258
H           -0.49429230914751        5.40484933761495       -1.91520692642848
H            0.27553700432717        3.83721663963636       -0.15293225128896
H           -0.72720219360961        1.69388134715214       -2.22066791335203
H           -1.90059580922752        1.53115680758191       -0.91186436295621
H           -1.83343661436811        0.30349527918998       -2.16853215650966
H           -0.25720837054669       -0.57834906683123       -3.30396188754972
H            1.54180488518245       -1.58896247735660       -4.56568162985458
H            3.77140832860254       -1.92968024505021       -3.51973893709113
H            3.67709890976633       -1.37821684072081        1.04020467899979
H            4.79767951030400       -0.01319104349089        1.02306353692189
H            4.92009111924126       -1.95824912388783       -0.93328249276496
H            5.20002369821709       -0.27546257812098       -1.35521758736244
H            4.15081381599960        1.77103510282075       -0.91357445376660
H            2.49381015620468        2.35022820159362       -0.71928545719474
H            4.68067391645332        2.28103537063246        1.40234763536468
H            3.52482523488969        3.56580893551095        1.08669627692746
H            2.88864369654274        3.02900877418210        3.81407610621678
H            1.22909111296736        1.68724354146451        5.07618582189789
H            0.02944713565966       -0.12535712893071        3.99217284164404
H           -0.72492403705906       -1.93215809574957        3.10867751984996
H            0.98955416290636       -2.37624105740150        2.99834274500674