84
 energy: -119.558662953560 gnorm: 0.137054420347 xtb: 6.7.1 (edcfbbe)
C            6.09005000000000        1.61339700000000       -2.37124600000000
O            5.05049300000000        1.65163000000000       -1.40450700000000
C            3.90366400000000        2.33514400000000       -1.71991700000000
C            3.71091100000000        3.03000400000000       -2.92188800000000
C            2.52318500000000        3.72966600000000       -3.15865000000000
C            1.51845800000000        3.74599300000000       -2.19754100000000
C            1.69745700000000        3.05586700000000       -0.99952300000000
C            2.87691800000000        2.33637200000000       -0.75371500000000
S            3.01518000000000        1.50843100000000        0.82698300000000
S            2.99677000000000       -0.48510600000000        0.34987700000000
P            0.94814200000000       -1.02769100000000        0.28175500000000
N            0.59022100000000       -2.63847300000000       -0.05909600000000
C           -0.79474800000000       -3.10463600000000        0.24084100000000
C           -0.96849000000000       -4.03963900000000        1.44725400000000
C           -1.58339000000000       -3.62424900000000       -0.96920000000000
C            1.58955100000000       -3.65421100000000       -0.52013500000000
C            2.38348900000000       -3.13403500000000       -1.74452600000000
C            2.55060100000000       -3.99262300000000        0.63825200000000
C            1.06400200000000       -5.02626900000000       -1.03307400000000
N            0.25230900000000       -0.66773100000000        1.75124800000000
C            0.88860600000000       -1.39842900000000        2.85164700000000
C           -0.13112300000000        0.67210800000000        2.08075100000000
C            0.46320300000000        1.35593600000000        3.16255900000000
C            0.15683400000000        2.67814200000000        3.46866200000000
C           -0.74158100000000        3.38954500000000        2.68689800000000
C           -0.97231600000000        4.74755700000000        2.96795300000000
C           -1.83045100000000        5.50793400000000        2.17983000000000
C           -2.46019200000000        4.91734100000000        1.09748700000000
C           -2.23915900000000        3.56623400000000        0.81851400000000
C           -1.39333200000000        2.74208100000000        1.61061300000000
C           -1.14717900000000        1.33813300000000        1.33922300000000
C           -1.93685600000000        0.63117100000000        0.38014300000000
C           -1.31730200000000        0.03460000000000       -0.74756300000000
C           -2.13205200000000       -0.40198000000000       -1.81167000000000
C           -3.52095800000000       -0.35992300000000       -1.74932800000000
C           -4.15656700000000        0.09520700000000       -0.60178400000000
C           -5.55999500000000        0.06123700000000       -0.52871300000000
C           -6.22976000000000        0.47966400000000        0.61722100000000
C           -5.49929300000000        0.92864500000000        1.70601800000000
C           -4.10408900000000        0.97185900000000        1.63716600000000
C           -3.38102200000000        0.58068700000000        0.47894100000000
N            0.09883100000000       -0.10869100000000       -0.80398500000000
C            0.65989400000000       -0.11312000000000       -2.15175800000000
H            5.75816000000000        1.11367400000000       -3.28612500000000
H            6.91319300000000        1.02693800000000       -1.95239900000000
H            6.47182700000000        2.61759200000000       -2.57985800000000
H            4.47069600000000        3.05651400000000       -3.69581700000000
H            2.38875700000000        4.27128300000000       -4.09142100000000
H            0.59581400000000        4.29405900000000       -2.37219700000000
H            0.90371400000000        3.07434600000000       -0.25695500000000
H           -1.36179600000000       -2.22151900000000        0.54469700000000
H           -0.72362900000000       -3.53693100000000        2.38517900000000
H           -0.36657700000000       -4.94699100000000        1.39584200000000
H           -2.01677800000000       -4.35062800000000        1.53442700000000
H           -1.24680200000000       -3.16547600000000       -1.90334300000000
H           -1.53003300000000       -4.71090500000000       -1.07267200000000
H           -2.64627600000000       -3.38167400000000       -0.85184900000000
H            2.92813600000000       -2.21136200000000       -1.57616500000000
H            3.13717500000000       -3.86537900000000       -2.06278100000000
H            1.71640400000000       -2.97230400000000       -2.59778300000000
H            3.08105600000000       -3.12368000000000        1.02596100000000
H            2.01639700000000       -4.44986500000000        1.47763700000000
H            3.31971200000000       -4.70643800000000        0.31773000000000
H            0.49449100000000       -5.58605700000000       -0.29276800000000
H            1.90252500000000       -5.68214000000000       -1.30647500000000
H            0.46631600000000       -4.92117800000000       -1.94388600000000
H            1.06456700000000       -2.44368200000000        2.59306500000000
H            0.24887700000000       -1.40098300000000        3.74187200000000
H            1.87319300000000       -0.99437700000000        3.11049700000000
H            1.22527500000000        0.89066900000000        3.77919600000000
H            0.67122200000000        3.15348300000000        4.30068900000000
H           -0.46855100000000        5.23063100000000        3.80303300000000
H           -1.99225200000000        6.55797800000000        2.40352800000000
H           -3.12067100000000        5.50062400000000        0.46123100000000
H           -2.73504400000000        3.15655900000000       -0.05968800000000
H           -1.70007000000000       -0.83553200000000       -2.70792900000000
H           -4.09414800000000       -0.73063400000000       -2.59570000000000
H           -6.14669100000000       -0.30450100000000       -1.36897200000000
H           -7.31427000000000        0.44130700000000        0.66235000000000
H           -6.00537400000000        1.24374500000000        2.61457500000000
H           -3.57164600000000        1.30869100000000        2.52593300000000
H            1.74285400000000        0.02443300000000       -2.14228100000000
H            0.46454600000000       -1.05830400000000       -2.66648500000000
H            0.25678600000000        0.71023100000000       -2.75366800000000
84
 energy: -119.579924263078 gnorm: 0.058926713357 xtb: 6.7.1 (edcfbbe)
C            6.08160791368942        1.61199891491880       -2.36388181392850
O            5.03372262587821        1.64558225479113       -1.41061467111347
C            3.90241543153462        2.33897905377352       -1.71910967381907
C            3.70593394278897        3.03133839612230       -2.91413027316273
C            2.52564695287592        3.72450597732959       -3.14544208461491
C            1.52103076029689        3.74145907115938       -2.19103437413433
C            1.69346499928345        3.04716219835941       -1.00540758094214
C            2.86585530741965        2.33707765877511       -0.76913808631465
S            2.99820493110023        1.48354207841875        0.79396913419392
S            2.97025692114604       -0.50817265950621        0.27832679948318
P            0.89169156478311       -1.05763854165859        0.28088475712758
N            0.58195636820568       -2.67993761944564       -0.06456669124842
C           -0.81071722298653       -3.09459459356022        0.24762819284308
C           -0.96099283917437       -4.03923051127895        1.44628282761343
C           -1.58071407817210       -3.62417882589788       -0.96969652263371
C            1.61255535716878       -3.66931744620586       -0.51964633271024
C            2.38646470455697       -3.11837866895503       -1.73199050196499
C            2.56241952596185       -3.98703469100208        0.64219838084553
C            1.05086608872763       -5.01615838757536       -1.02537835902392
N            0.23078714928253       -0.66651395486592        1.76510134789770
C            0.88555552259105       -1.39786674592963        2.85276702845047
C           -0.13064031795201        0.69057820373140        2.07456774458165
C            0.48436199113271        1.36182291121148        3.14721970015653
C            0.17221042815136        2.66126213017243        3.46448269592008
C           -0.73692776820544        3.38805157537437        2.68803282669401
C           -0.97492394063239        4.74806148904697        2.96417969705400
C           -1.82630329316894        5.48976939874461        2.18088028746198
C           -2.45355303810296        4.88363803499256        1.09325290983538
C           -2.24479376501602        3.54617748560934        0.81582951384101
C           -1.39828282233880        2.73779575192125        1.61182071090734
C           -1.14465579237551        1.34202370115806        1.35447929223938
C           -1.94664798406282        0.63453317950296        0.36576884923963
C           -1.33928312118935        0.03507608118745       -0.74479163828076
C           -2.13486948140182       -0.42175731554163       -1.80831523780993
C           -3.50578877857486       -0.36763675103935       -1.75519908323963
C           -4.15699271825135        0.09550341201210       -0.60553936657706
C           -5.56183681563314        0.06286424957660       -0.52414551381133
C           -6.21358605150849        0.47964688921635        0.61189474165210
C           -5.46823523409374        0.92965044275349        1.70129621359745
C           -4.08937778674206        0.98387458669100        1.63620314668606
C           -3.38106089561812        0.59278587186375        0.47671469273822
N            0.08047270384494       -0.09608001305725       -0.81070411481813
C            0.65787238088534       -0.10653587621866       -2.15301826880097
H            5.75584812704574        1.12454673354875       -3.28687167317903
H            6.88937740298786        1.02373839946727       -1.92525197193003
H            6.46016461335355        2.61540382213084       -2.57619109682690
H            4.46779633034785        3.05205417194204       -3.67883006501470
H            2.39577933867152        4.26085661979984       -4.07567398203569
H            0.60581428770705        4.28996246703084       -2.36400722890915
H            0.91344578546313        3.06387505822923       -0.25547146848247
H           -1.33100404990318       -2.17477946010954        0.54336513718194
H           -0.71541048747285       -3.53757852894496        2.37931912563802
H           -0.36393194168710       -4.94477457897790        1.37886521339434
H           -2.00735454313254       -4.33899467635338        1.51413402877604
H           -1.23653207606454       -3.16678730961310       -1.89495378578475
H           -1.52305722880681       -4.70538764904039       -1.06805822857823
H           -2.63439656873476       -3.37003934176956       -0.85082194427306
H            2.91678360548270       -2.19008585029047       -1.53395094893929
H            3.13039048995270       -3.85248772506246       -2.04356226394565
H            1.71330597957052       -2.96673802751474       -2.57723155716945
H            3.07379728046014       -3.09912822893459        1.01265749057738
H            2.01636818245887       -4.44349242490937        1.46843594543700
H            3.32230145189595       -4.69667794020361        0.31680549495306
H            0.48106990500154       -5.56671203034927       -0.28454852171352
H            1.90321379252729       -5.64648201451931       -1.28779776701584
H            0.46066717946379       -4.90513193119252       -1.93191837765584
H            1.04667604631831       -2.43803689140536        2.56535794256870
H            0.24651693056198       -1.38334957744410        3.73729218764191
H            1.86760526675945       -0.98876814173620        3.11073674327126
H            1.22415442002109        0.87691126175642        3.76593742900641
H            0.66669032253888        3.13205140258688        4.30289418848560
H           -0.47012316674118        5.22077710683874        3.79618292137517
H           -1.99349884130308        6.53635496829162        2.40034715773120
H           -3.10888469589151        5.46635882259455        0.45901739753656
H           -2.73677993594193        3.12856802210420       -0.05308937019235
H           -1.68875716441447       -0.82869842431821       -2.70365392216400
H           -4.08019898837341       -0.72047190442447       -2.60045945762967
H           -6.13747371622425       -0.30440550545628       -1.36345816089897
H           -7.29416477249379        0.44502200108432        0.66151144989875
H           -5.97372348046132        1.23912797830089        2.60649507625619
H           -3.55147879335057        1.31873831437696        2.51381517478103
H            1.74097373774640        0.03007310079064       -2.11168417180936
H            0.46483502156830       -1.04720717056937       -2.67635396755030
H            0.24802412699332        0.71806268558951       -2.73911947492263
84
 energy: -119.586567927745 gnorm: 0.013889204325 xtb: 6.7.1 (edcfbbe)
C            6.06802684401076        1.60640728139561       -2.34963827624276
O            5.00768755758236        1.62672934832394       -1.41332670781492
C            3.89088616388544        2.32571002552323       -1.71926481304899
C            3.69793737339255        3.02964529963473       -2.90599593303375
C            2.52362666375420        3.72294757245327       -3.13349959494340
C            1.51574256562430        3.74072815426577       -2.18469968206713
C            1.68155238252686        3.03825921396376       -1.00703660648238
C            2.84551805186521        2.32378264260308       -0.78178750806023
S            2.98116637498933        1.45228223494014        0.76796698142170
S            2.93009752754425       -0.52340558015310        0.22773509507756
P            0.85253831606082       -1.07371058054426        0.27195616915637
N            0.57825736568240       -2.69934552581448       -0.06996566192878
C           -0.81771029727731       -3.08638883884203        0.24841263298910
C           -0.97231918758313       -4.02991925901126        1.44382269058706
C           -1.59201550020331       -3.61347931386183       -0.96476360744154
C            1.62371793442484       -3.67540375992999       -0.51550617005162
C            2.38896090303295       -3.10878895017307       -1.71575356374516
C            2.57095673672365       -3.97680149922143        0.64544890837545
C            1.05756917974422       -5.01007858822110       -1.01818006649935
N            0.22112704319313       -0.66634884154040        1.76885710247135
C            0.88330012073547       -1.40009165831093        2.84976801615339
C           -0.12929174794541        0.69892219280363        2.06547055619359
C            0.50169439285363        1.35801547143638        3.13684300259274
C            0.18812470477655        2.64405696291509        3.45853095142192
C           -0.72914159334733        3.37906538581954        2.68604959639228
C           -0.97676142682809        4.73992644241857        2.95796848483359
C           -1.82727137511227        5.46504396251576        2.17519875437240
C           -2.45402912060002        4.84440275451887        1.08553344038038
C           -2.25029121248919        3.51747386256077        0.81191910491460
C           -1.39470154787401        2.72661116950436        1.61072656257063
C           -1.13522409377260        1.33881079425624        1.36108773990195
C           -1.94784133559035        0.63313995297417        0.35073029541067
C           -1.35161470189280        0.03709216020391       -0.74551173461698
C           -2.13465200701172       -0.43429940342544       -1.81276311745829
C           -3.49456583701063       -0.37442178304660       -1.76225116169089
C           -4.15204173355215        0.09538159495032       -0.61023101822287
C           -5.55796052116803        0.06646391929091       -0.51918139307053
C           -6.19304544543853        0.48519340242647        0.61361894572480
C           -5.43354030353370        0.93908220147783        1.70107137037225
C           -4.06677080875892        0.99865863507188        1.63384426816843
C           -3.37397723596983        0.59845154421111        0.47090457785645
N            0.07302998854435       -0.07203077866625       -0.81839371296501
C            0.65574799978360       -0.08658767206072       -2.15784431604365
H            5.75718406080549        1.13028727053086       -3.28442210446043
H            6.86089490626493        1.01737593201862       -1.89140806567805
H            6.44388546230604        2.61179371679401       -2.55658070459408
H            4.46746011669294        3.04943061799564       -3.65968989367006
H            2.40060153977266        4.25771131762489       -4.06214681698075
H            0.60696404457908        4.29276757688358       -2.35789069884831
H            0.90951701734995        3.04322772970431       -0.25275623736796
H           -1.30231471265872       -2.14162648460974        0.53718458147243
H           -0.71972094021280       -3.53488090399745        2.37502363573392
H           -0.37151113760984       -4.92811660579987        1.35817079646825
H           -2.01508451052656       -4.33067605991332        1.50357709834694
H           -1.23351810408216       -3.15990281787090       -1.88319583932496
H           -1.52804296231780       -4.69138857728873       -1.05383339825710
H           -2.64104677294889       -3.35256069770289       -0.84999816576717
H            2.90417251377120       -2.17980644299174       -1.48817301510038
H            3.13555181722056       -3.83349670926374       -2.02856205876522
H            1.71305451936441       -2.95162938029168       -2.55330492687601
H            3.06444373647729       -3.07237904203334        0.99721487156722
H            2.02476681214853       -4.43015429231087        1.46885704069478
H            3.33431238736333       -4.67803552305510        0.32345714032451
H            0.47854059263157       -5.54469947002517       -0.27717815053455
H            1.90666270714033       -5.63902092747655       -1.27541057917496
H            0.46802739441074       -4.88503327215942       -1.91811261049088
H            1.03368543368055       -2.43305178291315        2.53755905474054
H            0.24534252787302       -1.37779121167963        3.73228240270147
H            1.86405398151680       -0.98963213971884        3.10530780861922
H            1.24107545462459        0.86060732446990        3.73947008273030
H            0.66750386923673        3.11829829421430        4.30010720359414
H           -0.46832104907518        5.20372245029510        3.78930213259737
H           -2.00308192742434        6.50950877905777        2.38551193247733
H           -3.10341231663440        5.42802134857527        0.45054933229727
H           -2.74065366126463        3.08413395484939       -0.04620036896873
H           -1.67251213660409       -0.83320332270138       -2.69960322149452
H           -4.07807834661840       -0.71576767311480       -2.60254762950622
H           -6.12441097314456       -0.30529362812154       -1.35941647942510
H           -7.27041685176149        0.45357138789449        0.67487616698447
H           -5.93855698430945        1.24017579735475        2.60620756513845
H           -3.51596181295496        1.33878510354061        2.49708574840997
H            1.73560002156626        0.05200449183320       -2.08769728578060
H            0.47116411376860       -1.02431647022420       -2.68880711222850
H            0.23968001182117        0.73985419199130       -2.73043783351317
84
 energy: -119.588623967884 gnorm: 0.011872199769 xtb: 6.7.1 (edcfbbe)
C            6.05171203016781        1.59420705089499       -2.32783922542901
O            4.97669423591224        1.59993907909551       -1.40844387614621
C            3.86995538035653        2.30805085144203       -1.71508449122590
C            3.68620785809475        3.02557427732273       -2.89653926282998
C            2.51589496611635        3.72536302661236       -3.12351232627634
C            1.50180297292076        3.74041301236315       -2.18045313215812
C            1.65810070765863        3.02578213199430       -1.00795896539793
C            2.81806091481019        2.30464087698041       -0.78514384667707
S            2.95067900899341        1.42101024339141        0.75785876415522
S            2.92501656772989       -0.54613595206197        0.19667787741242
P            0.84739888572874       -1.07701672791598        0.25844242609575
N            0.57712084269499       -2.69901787400757       -0.07169629781284
C           -0.82265174528058       -3.07331386410295        0.24721520606296
C           -0.98485926758833       -4.01681857275628        1.44076700945704
C           -1.60019707367508       -3.59861899191652       -0.96359961008140
C            1.62547158998438       -3.67250483922947       -0.50855263462927
C            2.39192653669520       -3.09707632088166       -1.70154837538200
C            2.57524761370838       -3.95907894682868        0.65422293179981
C            1.05726539329843       -5.00479406130925       -1.00867460879932
N            0.22861698864344       -0.67108169583565        1.76037549785687
C            0.88665622244133       -1.41021964057183        2.83920018704940
C           -0.11823811998656        0.69314127811451        2.05546512901536
C            0.52129950509826        1.35082380080852        3.12517596064463
C            0.20195694679386        2.63411283817760        3.44984214783302
C           -0.72182690206310        3.36638710747483        2.67979725458138
C           -0.97775913268592        4.72669449114723        2.94859364025574
C           -1.83322918979742        5.44275621030221        2.16270875217596
C           -2.45962637130912        4.81539049816744        1.07432930969168
C           -2.25166240288245        3.49047831028412        0.80557545757874
C           -1.38643025608390        2.71246633994613        1.60660197454737
C           -1.12291853036614        1.32901566626419        1.35617844436407
C           -1.93973260553896        0.62585806991091        0.34152268517749
C           -1.34866796208466        0.03346964771510       -0.75307885439424
C           -2.13102071675930       -0.44307290700980       -1.82111022509322
C           -3.49041631003437       -0.38052467112680       -1.76655861263160
C           -4.14367321174407        0.09389271653024       -0.61219816784316
C           -5.54971189802849        0.06985027088941       -0.51266341945410
C           -6.17469746544914        0.49271171595906        0.62433050198478
C           -5.40750362885974        0.95008720227040        1.70742752305771
C           -4.04316245674623        1.00892326555147        1.63163919042998
C           -3.36259053932978        0.59671204129015        0.46520357965546
N            0.07856592214728       -0.05762533090011       -0.82646786948639
C            0.65974974261941       -0.05980646479288       -2.16553000178906
H            5.75875019899056        1.12851679914121       -3.27466168819868
H            6.83600798281812        1.00326725846020       -1.85914522472886
H            6.42659233716934        2.60364688826614       -2.51813532652007
H            4.46309113709929        3.04753465460193       -3.64298523839138
H            2.40184711120429        4.26777528493565       -4.04888453573888
H            0.59874346473614        4.30172491836222       -2.35334591568221
H            0.88720862512821        3.02438850749800       -0.25283756067732
H           -1.29477685912176       -2.12124239254075        0.53203267249603
H           -0.73176426291566       -3.52814996651665        2.37493366504820
H           -0.38374655896417       -4.91417812489295        1.34789923008180
H           -2.02759512892156       -4.31705697467766        1.49575990877134
H           -1.23641331787530       -3.14992554305330       -1.88246811447972
H           -1.53927799024858       -4.67736546697710       -1.04644941790224
H           -2.64749570067305       -3.33158823590881       -0.85032772147575
H            2.90155368995743       -2.17025834011251       -1.45838339432616
H            3.14385254927338       -3.81381980980796       -2.01874061515561
H            1.71696420083839       -2.93080104987919       -2.53734039448556
H            3.05884254111114       -3.04577913914324        0.99584478247137
H            2.03624204680891       -4.41268570604461        1.48169261880391
H            3.34746387435031       -4.65268387478701        0.33586794464202
H            0.47281773482646       -5.53324973792061       -0.26726996808714
H            1.90376624690706       -5.63779723702697       -1.26211345872229
H            0.46912249121730       -4.87483104275953       -1.90924225658318
H            1.02971678185183       -2.44030385613487        2.51922099371371
H            0.24817100051437       -1.38553712352536        3.72148193214257
H            1.86859893062180       -1.00421569735057        3.09496665619649
H            1.26658453908389        0.84941062948533        3.71612553676159
H            0.67675549642745        3.11360928820419        4.29137266686419
H           -0.46862861575106        5.18987746924638        3.78024535720206
H           -2.01891015961596        6.48617874191338        2.36654888928283
H           -3.11213547371253        5.39598662609810        0.44031639299479
H           -2.74229715138400        3.04182140432960       -0.04477813055733
H           -1.66182177928051       -0.84175419226847       -2.70381071739366
H           -4.08283418705031       -0.71829345791362       -2.60263458439249
H           -6.11660693458076       -0.30367812166236       -1.35213787029393
H           -7.25102793473573        0.46594659008466        0.69666431247463
H           -5.90950611434357        1.25387155219132        2.61298132697653
H           -3.47861300495639        1.35721357062437        2.48321290326206
H            1.73628250144343        0.08699923749414       -2.08769178582184
H            0.48359122532506       -0.99340076724095       -2.70618716801855
H            0.23605842011883        0.76977727755559       -2.72785234989662
84
 energy: -119.590290660896 gnorm: 0.012369539128 xtb: 6.7.1 (edcfbbe)
C            6.02636315793884        1.57424075949680       -2.29470233768769
O            4.93026443326715        1.56254869340753       -1.39981356140721
C            3.83655991086353        2.28641045495085       -1.70890286497444
C            3.66571555319719        3.01719116396721       -2.88535667887655
C            2.50207160760950        3.72901507563707       -3.11154814308966
C            1.47950285117918        3.74061535795224       -2.17672878147118
C            1.62332787733561        3.01499601579318       -1.00883077162628
C            2.78071798281605        2.29008860840298       -0.78441703242010
S            2.92598329771251        1.42997687422961        0.76849265032551
S            2.91127963793612       -0.52958553476434        0.19885172786768
P            0.84976703892396       -1.08163440680698        0.23803022741968
N            0.57585358040809       -2.69734026618948       -0.07074289455783
C           -0.82969684973859       -3.05741833768742        0.24564856402384
C           -1.00386916962084       -3.99799699911689        1.43905864616278
C           -1.61059916961638       -3.57882579797673       -0.96369170733841
C            1.62586048669293       -3.66852414377615       -0.49968174979471
C            2.39177638411147       -3.09525822444566       -1.69323778284900
C            2.57796850179163       -3.93952875044362        0.66606466012097
C            1.05653135457733       -5.00027963231035       -0.99455795754188
N            0.24642391122337       -0.67870134517667        1.74452873116322
C            0.89543918374194       -1.42708777664360        2.82126313521651
C           -0.09699426995115        0.68241382742819        2.04058764464871
C            0.54948081583071        1.34269971181115        3.10695684101723
C            0.22299276632424        2.62422795397375        3.43311774292034
C           -0.70966310183642        3.35010072895543        2.66626623774997
C           -0.97775342262450        4.70893927606691        2.93179333764089
C           -1.84171587042059        5.41363266551001        2.14335579409847
C           -2.46773833725396        4.77986051860445        1.05782798442760
C           -2.24931754018978        3.45680031523129        0.79331102483708
C           -1.37239749195708        2.69383387055931        1.59655430314097
C           -1.10351707254529        1.31414401672786        1.34496891096713
C           -1.92466996199819        0.61283674937263        0.33217511987811
C           -1.33963034889192        0.02503192459926       -0.76539775477232
C           -2.12546224142811       -0.45443053804274       -1.83160629086034
C           -3.48532985364833       -0.39076459678638       -1.76782265856070
C           -4.13067558002373        0.08823283822670       -0.60981806475684
C           -5.53669782628898        0.07283481524067       -0.49909062329981
C           -6.14889319674345        0.50369112353709        0.64297287214590
C           -5.37331138854532        0.96572207970571        1.71909780165123
C           -4.01018425632797        1.01754154773460        1.63207278955618
C           -3.34480176161457        0.58958432290833        0.46178085096558
N            0.08996376565191       -0.04518305816431       -0.83884102584900
C            0.66913990751400       -0.02038814539051       -2.17792952071989