85
 energy: -131.130080706884 gnorm: 0.000023909128 xtb: 6.7.1 (edcfbbe)
C            7.40045417912414        1.49162883669009        0.52601768741205
O            6.90545218322984        1.12166305427547       -0.74158248664689
C            5.77934645548176        0.38403713692023       -0.82004717833167
C            5.38513786244829        0.01247405127142       -2.10793348830738
C            4.24910754617805       -0.74193731386776       -2.32550864840744
C            3.88068519688873       -1.15673522962524       -3.71364150355184
C            3.46899830493497       -1.09676924467473       -1.21913147506370
S            1.99013717171671       -2.07747094591073       -1.42658796943859
Se           0.62502975951978       -0.80794221233410       -2.55284855290608
P           -0.31752527100356        0.42527374129300       -0.97034270209802
N            0.33962832392118        1.89417452095548       -0.67709704785460
C            1.44002404549333        2.43258985757422       -1.45544638332350
C            2.68705581251815        2.72345455461167       -0.59099274404810
C            2.44325666847156        2.50941512396936        0.90186389866366
C            1.55583382022135        3.58610790700977        1.53098945850817
C            0.36810591743085        3.99082957073594        0.65908714001057
C           -0.45299046796305        2.81622085847664        0.14385668007100
O           -0.35732570951702       -0.49934399397019        0.32524482580664
C           -1.40054087894289       -0.38843660496956        1.26657373372411
C           -1.01121808929268        0.02830028304748        2.56490712469049
O            0.30816411925083        0.31961714722822        2.70200295589686
C            0.78653557116285        0.63473879701356        3.99194118342860
C           -1.96869611208601        0.11165946717698        3.54215446506563
C           -3.32563712775462       -0.13549806503160        3.24590488656879
C           -4.32099206975795        0.01955396737844        4.23309217617605
C           -5.64173697889975       -0.16077671245446        3.92994786780978
C           -6.02538330342680       -0.48819905805318        2.62165520356917
C           -5.08319676549318       -0.66526906175304        1.64578285573244
C           -3.71059356379715       -0.52201162870459        1.93587544800078
C           -2.69896743827415       -0.70668674325186        0.94907293623955
C           -3.00693019513524       -1.21618269165641       -0.40126198440875
C           -2.55912538665949       -0.50654900127819       -1.48449684472634
C           -2.70770886226233       -0.94621714087556       -2.82009626458599
O           -2.03147279938790       -0.19522931239112       -3.73181691120435
C           -2.17596733242525       -0.53001867084240       -5.09818140963449
C           -3.44378835984793       -2.07741313201934       -3.05361673521099
C           -3.94928409987578       -2.83557158321532       -1.97449218680682
C           -4.66409410282276       -4.02837253779580       -2.21132963236019
C           -5.07238151128086       -4.81979881260762       -1.17416820029395
C           -4.76407769075447       -4.46349301064182        0.14627090878888
C           -4.08927195361672       -3.30374324640759        0.41276112267174
C           -3.69512509686561       -2.44300432453380       -0.63214767883606
O           -1.84369845338986        0.69459083211833       -1.29414594807227
C            3.85190825350107       -0.76250048135721        0.07985927207166
C            3.05933301652679       -1.22070636380443        1.26282724946396
C            5.01009667829166       -0.02262565120896        0.26708881211748
H            8.31497029681469        2.04839833251943        0.33161538422165
H            7.63430886610660        0.61442966657721        1.13584417587446
H            6.69323812990427        2.13379835709805        1.06006661721043
H            6.00773591225470        0.31522661898380       -2.93428552321632
H            3.05694563446408       -0.54881370337388       -4.09892936290519
H            3.56130432818526       -2.19767045700569       -3.73153404307129
H            4.72881113788588       -1.03574146010498       -4.38066634880675
H            1.10194476540868        3.33298661743832       -1.97540258973323
H            1.69265937169633        1.69516623939578       -2.22408638442841
H            3.49609268297646        2.06277883504368       -0.90503554819366
H            3.01551658261861        3.74928527258917       -0.75892139834365
H            1.99612703429885        1.52717823908994        1.05490038988577
H            3.40735952428989        2.50969349912769        1.41238266274292
H            2.14912806314229        4.48238871997164        1.72146525442027
H            1.19402056695139        3.22211205486029        2.49348972934084
H            0.71689668581359        4.58804050151682       -0.18261547957215
H           -0.30305637127123        4.62351936314452        1.24335199290795
H           -1.29792782934971        3.19786270318326       -0.44234586058301
H           -0.85563950502418        2.24499869285051        0.98579619282867
H            0.31258909327658        1.53891176674432        4.38501200517293
H            1.85442813526124        0.80733564182100        3.87439563601282
H            0.62505667010036       -0.19323826007159        4.68681364606662
H           -1.71195332141715        0.39635662112778        4.54944800189290
H           -4.01972090089897        0.29550947176823        5.23244341319858
H           -6.39668229969007       -0.03803241478188        4.69091131192940
H           -7.07255610852245       -0.59748286739934        2.38629191813116
H           -5.38606351588868       -0.90653939563524        0.63899407237918
H           -3.22159478957998       -0.46546392100225       -5.40757859166716
H           -1.58800625564226        0.20431932999293       -5.64469942873558
H           -1.78844141447837       -1.53199054209801       -5.30164501049234
H           -3.61412240705798       -2.43712544312673       -4.05511512345417
H           -4.87257059688815       -4.31119120793769       -3.23209831919273
H           -5.61808082977050       -5.73048902955957       -1.36629619213502
H           -5.06079404471259       -5.11256292263504        0.95538703056053
H           -3.84793320870858       -3.04153864183974        1.43064366979989
H            3.46783345865916       -0.80777965080537        2.18082992423968
H            2.01479198055483       -0.92612347055490        1.17893420499531
H            3.08774467930237       -2.30737496842152        1.33051566093391
H            5.30907753278729        0.22103088016715        1.27386039318619
