85
 energy: -128.840426335796 gnorm: 8.839040209741 xtb: 6.7.1 (edcfbbe)
C            8.90886600000000       -2.19269100000000        0.39425700000000
O            8.08167700000000       -2.83090200000000       -0.55557900000000
C            6.80883800000000       -2.33087500000000       -0.78207800000000
C            5.99327200000000       -2.94800400000000       -1.70849000000000
C            4.72283400000000       -2.47933700000000       -1.95987100000000
C            3.84935000000000       -3.14964900000000       -2.95996600000000
C            4.23663400000000       -1.36151700000000       -1.27395600000000
S            2.58244900000000       -0.79175300000000       -1.63491300000000
Se           1.61722800000000        0.00836100000000       -1.45579200000000
P            0.10555500000000        0.90035100000000       -0.45650100000000
N            0.54910800000000        2.53392300000000       -0.17916700000000
C            0.33364200000000        3.34551400000000       -1.33033800000000
C            1.45247100000000        4.38168400000000       -1.49377000000000
C            1.62295000000000        5.04191700000000       -0.11908600000000
C            0.24520000000000        5.49164300000000        0.29340600000000
C           -0.61157000000000        4.42548100000000        0.88072200000000
C            0.02755100000000        3.08831100000000        1.04206900000000
O           -0.07439000000000       -0.03755100000000        0.99468600000000
C           -1.30649000000000       -0.13800300000000        1.66483600000000
C           -1.29976500000000        0.06686100000000        3.01069500000000
O           -0.10000900000000        0.32677200000000        3.64675700000000
C           -0.12096000000000        0.53523500000000        5.04326300000000
C           -2.51944500000000        0.00532100000000        3.70398000000000
C           -3.72023200000000       -0.25116200000000        3.04563900000000
C           -4.91536800000000       -0.19604200000000        3.72525100000000
C           -6.06505000000000       -0.34078500000000        2.99000500000000
C           -6.12250700000000       -0.53236400000000        1.63472100000000
C           -4.92872000000000       -0.59142600000000        0.95566100000000
C           -3.73702400000000       -0.46504500000000        1.64917100000000
C           -2.49459500000000       -0.40500800000000        1.03443100000000
C           -2.62003500000000       -0.92532000000000       -0.37301200000000
C           -2.16949900000000       -0.26965700000000       -1.48680400000000
C           -2.58748800000000       -0.71381300000000       -2.71215500000000
O           -2.14359600000000       -0.05073700000000       -3.84365300000000
C           -2.46873400000000       -0.36782300000000       -5.15929500000000
C           -3.44686600000000       -1.81964300000000       -2.78306000000000
C           -3.87906500000000       -2.48082800000000       -1.63211500000000
C           -4.62694200000000       -3.62847100000000       -1.72063700000000
C           -4.91168100000000       -4.29069900000000       -0.55344500000000
C           -4.50827300000000       -3.90336000000000        0.69615100000000
C           -3.76168100000000       -2.75055900000000        0.78621500000000
C           -3.45510500000000       -2.03256800000000       -0.35970800000000
O           -1.28746000000000        0.81902100000000       -1.47763700000000
C            5.03621500000000       -0.73041200000000       -0.34400300000000
C            4.48584600000000        0.45460500000000        0.36557000000000
C            6.29457700000000       -1.23221400000000       -0.12636400000000
H            9.75196200000000       -2.86442100000000        0.59008300000000
H            8.31716500000000       -2.08803100000000        1.31177100000000
H            9.19342400000000       -1.17741000000000        0.05474400000000
H            6.38788900000000       -3.81481100000000       -2.23140700000000
H            3.34623300000000       -2.31052000000000       -3.50974500000000
H            3.05805300000000       -3.73639100000000       -2.48222300000000
H            4.41232400000000       -3.71876900000000       -3.70534300000000
H           -0.65227200000000        3.80886600000000       -1.42385700000000
H            0.45512300000000        2.67075400000000       -2.22546600000000
H            2.38925100000000        3.87473700000000       -1.76785100000000
H            1.18522300000000        5.15953500000000       -2.21299000000000
H            2.02662100000000        4.32614100000000        0.62429800000000
H            2.25918700000000        5.91461500000000       -0.27140100000000
H           -0.26245600000000        5.86216400000000       -0.64430300000000
H            0.28730900000000        6.41265400000000        0.93861700000000
H           -1.57665400000000        4.28573000000000        0.35311900000000
H           -0.89116400000000        4.75855800000000        1.91983900000000
H           -0.79696700000000        2.39247600000000        1.35994000000000
H            0.77552500000000        3.02589200000000        1.85760700000000
H           -0.86925900000000        1.29099300000000        5.36755200000000
H            0.89083700000000        0.75986100000000        5.44259000000000
H           -0.42356300000000       -0.43001500000000        5.54384000000000
H           -2.46395800000000        0.16816700000000        4.76673900000000
H           -4.91224200000000       -0.04219200000000        4.80548100000000
H           -7.00123600000000       -0.30543100000000        3.52088600000000
H           -7.06695000000000       -0.63167500000000        1.12948900000000
H           -5.01315700000000       -0.61944300000000       -0.11945600000000
H           -3.52574500000000       -0.59211000000000       -5.33229000000000
H           -2.07222000000000        0.43045300000000       -5.81503400000000
H           -1.90642400000000       -1.31312300000000       -5.40750800000000
H           -3.75669000000000       -2.13393600000000       -3.76263700000000
H           -4.95130600000000       -3.94987900000000       -2.69908000000000
H           -5.50486200000000       -5.18718200000000       -0.62319100000000
H           -4.76681100000000       -4.48210300000000        1.58063500000000
H           -3.35794500000000       -2.54345700000000        1.76451400000000
H            5.28727200000000        1.12855000000000        0.73787700000000
H            3.87905400000000        1.04490300000000       -0.34499600000000
H            3.85645500000000        0.19042500000000        1.23197100000000
H            6.94126000000000       -0.75136100000000        0.60109700000000
85
 energy: -130.719554715232 gnorm: 0.579746325822 xtb: 6.7.1 (edcfbbe)
C            8.90788654971262       -2.19249927662316        0.39449575442738
O            8.08048469672988       -2.83071873810210       -0.55637043945952
C            6.81037882434366       -2.33106407130039       -0.78151901720160
C            5.99359742988653       -2.94894139721686       -1.70913861635517
C            4.72345557559561       -2.48028722253955       -1.95991505601622
C            3.84852774919903       -3.14822898774369       -2.96123417975496
C            4.25078346359223       -1.36733083017576       -1.27145758094484
S            2.79970921082678       -0.98201393393229       -1.67983953962087
Se           1.39425141604262        0.19832269102570       -1.42495578071705
P            0.09486896801162        0.90358794728193       -0.44857203990219
N            0.54801795871153        2.53199685938868       -0.17936226606235
C            0.33446094943966        3.34515100764165       -1.33409518756459
C            1.45293772327273        4.38130664462311       -1.49246885622536
C            1.62333181293785        5.04198143524960       -0.11946299540584
C            0.24457350602623        5.49492307709122        0.29213392782336
C           -0.61356863620129        4.42606080520261        0.88330717462759
C            0.02616401131861        3.08640228178758        1.04407778649831
O           -0.07603859825545       -0.03601007823369        0.99351731362099
C           -1.30613370576825       -0.13788647812506        1.66327077097329
C           -1.30009534111946        0.06751547524501        3.01475140759213
O           -0.10030107954757        0.32728663675021        3.64656072746449
C           -0.12155097817863        0.53385828411005        5.04450686839620
C           -2.51728046739504        0.00523439210961        3.70375213186256
C           -3.71941642603657       -0.25043924950811        3.04589823436667
C           -4.91690137214142       -0.19623022309620        3.72590465776436
C           -6.06632034323729       -0.34086410114082        2.99253938911504
C           -6.12180055120340       -0.53248403447707        1.63401170419282
C           -4.93111988877659       -0.59027887500746        0.95515951738918
C           -3.73643174746655       -0.46296789687814        1.65061552055600
C           -2.49300153157812       -0.40556216733154        1.03140814823329
C           -2.61853785319502       -0.92301211486510       -0.37066446588594
C           -2.16827321729673       -0.26914064728168       -1.48564677439195
C           -2.58868790468958       -0.71530342942096       -2.71615766686225
O           -2.14325392251376       -0.04957637399342       -3.84190887250320
C           -2.46780631465966       -0.36991469956915       -5.15976761798510
C           -3.44596023177784       -1.81790649747511       -2.78351345958506
C           -3.87806772218717       -2.48034882624261       -1.63275006073750
C           -4.62789020025713       -3.62959666950780       -1.72029011404809
C           -4.91340914748409       -4.29236429264533       -0.55501905631551
C           -4.50779694454967       -3.90267226749545        0.69686437107120
C           -3.76156200430883       -2.75299235765179        0.78735611432832
C           -3.45394304604680       -2.03376366574580       -0.36168005349428
O           -1.28559263748633        0.81981407802695       -1.47494511975432
C            5.03673559852918       -0.73024028720500       -0.34331526907712
C            4.48610288856876        0.45582542335705        0.36603096271206
C            6.29605214818694       -1.23130435732077       -0.12484230421505
H            9.75173978822275       -2.86387511488454        0.58964723294903
H            8.31764200968768       -2.08800960082833        1.31218859797167
H            9.19375493172510       -1.17817623891216        0.05485611681242
H            6.38761382800794       -3.81460311730167       -2.23139519520339
H            3.34652410833625       -2.31170021846477       -3.50942070546878
H            3.05860754481283       -3.73636168261474       -2.48251604240055
H            4.41210049260503       -3.71891248681046       -3.70462318123338
H           -0.65202384134858        3.80851720598025       -1.42364821128493
H            0.45457707895619        2.67098906394299       -2.22492238591639
H            2.38886850650466        3.87503458544337       -1.76809303238289
H            1.18538221999740        5.15893090954112       -2.21305594786364
H            2.02680953747782        4.32712532148051        0.62352329762453
H            2.25952011907745        5.91439034935858       -0.27078741442743
H           -0.26189888892391        5.86214128240001       -0.64331852584585
H            0.28743030552286        6.41138399150089        0.93828454654570
H           -1.57603153492697        4.28606982211239        0.35337695879632
H           -0.89118552562930        4.75803875983532        1.91897913553384
H           -0.79646437705590        2.39314427536305        1.36040791001876
H            0.77544184143179        3.02626164768165        1.85699087018811
H           -0.86829103495741        1.29088423656081        5.36710570066338
H            0.88996614148923        0.76003911297369        5.44150576347834
H           -0.42330519266816       -0.42921359407564        5.54349476003309
H           -2.46465483281752        0.16799576218817        4.76668021915825
H           -4.91255093880717       -0.04220115788896        4.80489923391341
H           -7.00167827343831       -0.30533853212583        3.52121791474719
H           -7.06693141477474       -0.63159238791871        1.12941481641336
H           -5.01294303259707       -0.61921153183476       -0.11933828280120
H           -3.52570397114500       -0.59147514886869       -5.33224450907298
H           -2.07286268010259        0.43000882013564       -5.81423999056771
H           -1.90690133840269       -1.31247111657696       -5.40777198314343
H           -3.75690381975983       -2.13423325667647       -3.76257691692327
H           -4.95143678284195       -3.95029361249942       -2.69881605965473
H           -5.50511300410814       -5.18765942321842       -0.62331795972113
H           -4.76659797930014       -4.48185226792829        1.58019668010124
H           -3.35771505601765       -2.54343991678254        1.76427815301862
H            5.28664292171340        1.12790931894665        0.73760205792490
H            3.87938101154728        1.04508560417515       -0.34454332768609
H            3.85669848782511        0.19036208382109        1.23158551959758
H            6.94091297710842       -0.75101873826906        0.60112609317866
85
 energy: -130.886595164747 gnorm: 0.266228028042 xtb: 6.7.1 (edcfbbe)
C            8.89830321292738       -2.19295483767791        0.39641012188813
O            8.07740987679784       -2.83170685449663       -0.56148616689326
C            6.82211966719141       -2.33142183340197       -0.77677934326027
C            6.00957272923334       -2.96088329096743       -1.71158722241579
C            4.74883369597246       -2.50547716401155       -1.96226082307427
C            3.84863273889047       -3.14203909703595       -2.96930505359472
C            4.32161425794474       -1.39605360155258       -1.25060579674464
S            2.82201975475764       -1.08802912308703       -1.77123697960503
Se           1.46273034624849        0.20035338309553       -1.62388357781217
P           -0.08570320724160        0.98774836648196       -0.31713247717813
N            0.52236724606048        2.54666282384679       -0.16478774331658
C            0.33974636767948        3.34002760733135       -1.35609327537970
C            1.45767246637341        4.37708896876151       -1.48421354861759
C            1.62280046368862        5.04756660005390       -0.12204004720409
C            0.23863699738147        5.51389808994968        0.28590276030669
C           -0.62518981327930        4.43710241821802        0.90250357149165
C            0.01099120552302        3.08873781726504        1.06411484202320
O           -0.10165878430292       -0.02762442090787        1.00752448032230
C           -1.31034889462390       -0.13885054018548        1.66962659983885
C           -1.30025561547889        0.07162729550081        3.03756426441116
O           -0.10143324646054        0.33492725156631        3.65150178523569
C           -0.12623744506841        0.52335902784869        5.05216952820115
C           -2.50723011459498        0.00398487958429        3.71006549087899
C           -3.71560164647961       -0.23854320564178        3.05104161953323
C           -4.92643000869587       -0.19760723570241        3.73185136650283
C           -6.07894477704588       -0.34407827167892        3.00911001070280
C           -6.12325380327595       -0.53088937551146        1.63746934165420
C           -4.94162002361339       -0.57134887985489        0.95540668387206
C           -3.73365322267922       -0.43702333689105        1.65454688516714
C           -2.48462830177867       -0.40369453489115        1.01954242061620
C           -2.60784644313515       -0.91255819206971       -0.36204662644281
C           -2.16336336103016       -0.26957161411484       -1.48448961442664
C           -2.58894617806844       -0.71943678392989       -2.73547208430943
O           -2.14001080489491       -0.03820777350036       -3.83623886311383
C           -2.46016217987732       -0.38425708923768       -5.15771125718646
C           -3.44256288786588       -1.80890760243398       -2.79204987169518
C           -3.86770676772531       -2.48272677410394       -1.64112821909027
C           -4.63516642563872       -3.63635391979820       -1.72054959096906
C           -4.92879152964171       -4.30423207516926       -0.56264772168023
C           -4.50902405616744       -3.90506133724820        0.69512091768297
C           -3.75135165623619       -2.77160437329201        0.78712491353743
C           -3.43351643780247       -2.04667605512085       -0.37195034323071
O           -1.31499821749068        0.83795635157633       -1.45144338677283
C            5.06320039980960       -0.72727739814279       -0.32491573899095
C            4.49007699741129        0.46284007087279        0.36923515888270
C            6.31817318360058       -1.22567312047043       -0.10889641204711
H            9.74787325903326       -2.85696388187765        0.58333346602909
H            8.32259664872358       -2.08809476565320        1.32025651391347
H            9.19787349437862       -1.18735110491735        0.05619399960186
H            6.39098053890166       -3.81922876729125       -2.23396952481483
H            3.34813110509283       -2.32252215614307       -3.51231848373806
H            3.06614916685205       -3.73498837287574       -2.48707255653611
H            4.41044781549844       -3.72343631126094       -3.69772332711154
H           -0.64694000565210        3.80542165003578       -1.42582507217629
H            0.44784970650865        2.66748034499649       -2.22798318811543
H            2.38733817583316        3.87688846499529       -1.77109980566630
H            1.18871389245957        5.14840600573078       -2.21296812080230
H            2.03055697311375        4.33963029047944        0.61521045433360
H            2.26598687838607        5.91292420411022       -0.26326453753400
H           -0.25938333033700        5.86787899787526       -0.63834292167585
H            0.28983693323762        6.40417320917280        0.93829744564575
H           -1.57200691833108        4.29195920813682        0.35780007129954
H           -0.89677910753842        4.75667866926980        1.92051992105463
H           -0.79700111054625        2.39743689310608        1.37242345496445
H            0.77635051122243        3.03125555042818        1.85319404202165
H           -0.85698504874390        1.29149539995090        5.36304980627433
H            0.88142497208396        0.76302156503040        5.42812794535914
H           -0.42257025158436       -0.42676121392329        5.54364757307936
H           -2.47296217950665        0.16596835922250        4.77000987687989
H           -4.91841620853589       -0.04146302314016        4.80269210787979
H           -7.01294525013757       -0.30379463996371        3.52994779609294
H           -7.06677813813409       -0.63005763645639        1.12893212365925
H           -5.01249718544977       -0.61449354273131       -0.11832591348094
H           -3.52345319392430       -0.58361494369506       -5.33053814953106
H           -2.08056598834242        0.42357743816545       -5.80426333665695
H           -1.90807817970191       -1.31197363760396       -5.41276154092399
H           -3.75981573006310       -2.13706791808173       -3.76414169923053
H           -4.95493644119986       -3.95746798366469       -2.69709031416494
H           -5.51283246147497       -5.19901237597267       -0.62649620287089
H           -4.76479380186155       -4.47997257606067        1.57642105283635
H           -3.35452447368877       -2.54561983482978        1.76221374051525
H            5.28342162635186        1.12420355919790        0.73787152684791
H            3.88327160340162        1.04603902431310       -0.33973284932708
H            3.85954730914857        0.18919502269302        1.22696573691977
H            6.94664763722784       -0.74286441059219        0.60992991145152
85
 energy: -130.975825046368 gnorm: 0.163081865643 xtb: 6.7.1 (edcfbbe)
C            8.88851454322307       -2.19502382931980        0.40064280277643
O            8.07935228406057       -2.83302076565979       -0.56558570881508
C            6.83912171054816       -2.32955574182423       -0.76973538242382
C            6.03645087671788       -2.97479574732587       -1.71259242643409
C            4.77449926459725       -2.52723904153984       -1.96709472740077
C            3.86512181553574       -3.14790091668400       -2.98453651118026
C            4.34452922638719       -1.40641586434319       -1.24760324167933
S            2.71449582185085       -1.18500912567168       -1.77209687460709
Se           1.46432405421060        0.28519322579445       -1.75890172282831
P           -0.08316686773255        0.96296193261519       -0.35060716177711
N            0.47346963496013        2.51843564838347       -0.17398450979631
C            0.34259840637001        3.32421275333543       -1.38368936081594
C            1.46262320176739        4.36470954331944       -1.47205930679698
C            1.61810076571208        5.05842891868750       -0.12523521296487
C            0.22930301044303        5.53372583555397        0.28604370735147
C           -0.64078613610140        4.45076405653593        0.93209381765332
C           -0.01666961752701        3.08035030588112        1.08287739105532
O           -0.12147917844683        0.01737841979368        0.96787119196301
C           -1.31507840216459       -0.11403736193640        1.66649615363088
C           -1.29969652662503        0.08447098901884        3.05749544083251
O           -0.10353567463236        0.34976002866805        3.65592914250852
C           -0.13078367773003        0.50922515676103        5.06032638271955
C           -2.49932397060444        0.00395852673334        3.72366922404749
C           -3.71680344244013       -0.21035501864730        3.06036569039595
C           -4.94163816434915       -0.19721441002544        3.74328120338625
C           -6.10130150790411       -0.35028293776537        3.03693869490025
C           -6.12947447314888       -0.52190283288615        1.65146536539826
C           -4.95400418735754       -0.52930510791555        0.96305801285706
C           -3.73354128436430       -0.38691069132751        1.66115883360861
C           -2.47976783185583       -0.39014753152365        1.00843103428065
C           -2.58952330435170       -0.90935967596083       -0.35318482379721
C           -2.15836181791866       -0.26586574274200       -1.47668787931082
C           -2.58472321190788       -0.71500043307684       -2.75137725057788
O           -2.13451509115586       -0.01783420258902       -3.82747784575230
C           -2.44968510075171       -0.40105316076090       -5.14928865086438
C           -3.43373978642571       -1.79993578436304       -2.80517523217813
C           -3.84349247374834       -2.49793138445299       -1.65528804087158
C           -4.64353603222121       -3.64839696768328       -1.72450366334322
C           -4.95374151277534       -4.32358389457225       -0.57626798300255
C           -4.50944863957333       -3.91718034706111        0.68314007274164
C           -3.72420626477308       -2.80673127903130        0.77586778209264
C           -3.39123084212260       -2.07666070617926       -0.38821844511913
O           -1.33339795903041        0.86065136982469       -1.39480001787117
C            5.07911333774481       -0.72272178201113       -0.31453604373045
C            4.49799400746299        0.47180269243312        0.37184487536440
C            6.34394812594887       -1.21799748865295       -0.09160997818195
H            9.74544097698047       -2.84713840874201        0.56870475605448
H            8.33371988657119       -2.09020626563696        1.33651976587204
H            9.20599260100710       -1.20204270966450        0.05702066385065
H            6.41088972299345       -3.83071898028304       -2.23727600408741
H            3.36388636164271       -2.35692813271582       -3.54351744066781
H            3.08482333687710       -3.73685843966079       -2.49899936829496
H            4.42213394208451       -3.74796398504852       -3.69095316210199
H           -0.63930086338074        3.79821954326785       -1.43788210900803
H            0.43770207524106        2.65551631353373       -2.23994312444135
H            2.38854053351834        3.87705561832983       -1.77262881420286
H            1.19498224964966        5.12320676353652       -2.21391217720423
H            2.03854695426825        4.36511343755181        0.60534043340982
H            2.27630568762128        5.91362483009437       -0.24943422267190
H           -0.26114628510737        5.88500252903836       -0.62620230275321
H            0.29548324194166        6.39762090887178        0.94727024883520
H           -1.57200731010048        4.30970493892446        0.37177193281168
H           -0.91302946859701        4.76312087960963        1.93531777726683
H           -0.81399084700245        2.41282495743946        1.42787480586652
H            0.77811564455877        3.04498737702736        1.84179578589208
H           -0.83581885024990        1.29552747298987        5.35998424065782
H            0.87407002879453        0.76760659203476        5.40209320822073
H           -0.42180694433121       -0.42924712341356        5.54663374091825
H           -2.49105765983462        0.15725171155997        4.78433593308688
H           -4.93191305789386       -0.04207052806592        4.80767907949028
H           -7.03812311857354       -0.30582730968594        3.55323420713130
H           -7.06845536229598       -0.62678198116956        1.13415886712141
H           -5.01122451282680       -0.59761364416539       -0.11092742934251
H           -3.51914435757967       -0.56790655465031       -5.32068795077826
H           -2.09278344878593        0.41390939250171       -5.78709327858541
H           -1.90782885063714       -1.31587835715633       -5.41780092485763
H           -3.76573180488234       -2.13928887865360       -3.76978068039971
H           -4.96520108692213       -3.97287847674639       -2.69744192959367
H           -5.53369171146378       -5.22218691829869       -0.63595990467664
H           -4.76377378316960       -4.48199292117721        1.56656392495988
H           -3.34320108162814       -2.55638765261150        1.75234818958611
H            5.28499012957025        1.12260835047108        0.74159645659921
H            3.89008797833330        1.04952925349491       -0.33136511365265
H            3.86533644514711        0.18558142244448        1.21798448015844
H            6.96127450066124       -0.72475865498156        0.62672062208732
85
 energy: -131.036268144690 gnorm: 0.070807790734 xtb: 6.7.1 (edcfbbe)
C            8.88464775027000       -2.19845419733021        0.40500897565958
O            8.07848949208132       -2.83098134528732       -0.56448089836243
C            6.84953101518011       -2.32548702865316       -0.76329858700373
C            6.05937027602965       -2.98359483717148       -1.71552283493189
C            4.79356656361175       -2.53770525964826       -1.98484436169805
C            3.88805284566297       -3.16319454277999       -3.00394465322252
C            4.35232604351971       -1.41778552830287       -1.26496255127515
S            2.58212967937155       -1.35031689101367       -1.67547663391277
Se           1.53578693229733        0.44280220417611       -1.89618517104811
P           -0.06769250728136        0.93771328585157       -0.39765993821298
N            0.41208982982403        2.49380041748193       -0.17314412540624
C            0.34129652817656        3.31854931400447       -1.39852828089404
C            1.46534441016512        4.35308001384409       -1.46393308928569
C            1.61121763934909        5.06268784396712       -0.12863471455525
C            0.22239738707305        5.55066706977659        0.28912102795019
C           -0.65849079657221        4.46423736072127        0.95263991758676
C           -0.04414634877903        3.07835969231601        1.10415858426078
O           -0.13883483859868        0.06840734299521        0.91430310327885
C           -1.32215361478471       -0.08683770645447        1.66175165366124
C           -1.29852559886646        0.09940468686738        3.07223439475990
O           -0.10571157962064        0.36269467893815        3.65688024065461
C           -0.13074262231373        0.50203742143158        5.06595968309653
C           -2.49351688899218        0.00635746917902        3.73444914237965
C           -3.72045729783214       -0.18336892483720        3.06811585744126
C           -4.95572032899379       -0.19275595459217        3.75129279423629
C           -6.12290994761502       -0.35106680820597        3.06307964643311
C           -6.13436901945782       -0.51022469391201        1.66663125103854
C           -4.96496762140709       -0.49230413458905        0.97372706421998
C           -3.73552579227520       -0.34547946980060        1.67044522760770
C           -2.47952744943943       -0.37939523715265        1.00067525178794
C           -2.57692241647346       -0.91018561598128       -0.34492516921151
C           -2.15413188514532       -0.26935975840583       -1.46995706682113
C           -2.57461905989208       -0.71556277438761       -2.76669319873950
O           -2.12757443834518        0.00075073801625       -3.81904859945252
C           -2.44050474714396       -0.41067088670656       -5.14225617705550
C           -3.42125176491804       -1.79518350332189       -2.81765424162135
C           -3.81835666592565       -2.51464433280162       -1.66826814465513
C           -4.64493408931769       -3.66047002262338       -1.72831847236857
C           -4.97178135734000       -4.34413756317280       -0.59186090438427