      -----------------------------------------------------------      
     |                   =====================                   |     
     |                           x T B                           |     
     |                   =====================                   |     
     |                         S. Grimme                         |     
     |          Mulliken Center for Theoretical Chemistry        |     
     |                    University of Bonn                     |     
      -----------------------------------------------------------      

   * xtb version 6.7.1 (edcfbbe) compiled by 'conda@3ef47c1a292c' on 2024-11-25

   xtb is free software: you can redistribute it and/or modify it under
   the terms of the GNU Lesser General Public License as published by
   the Free Software Foundation, either version 3 of the License, or
   (at your option) any later version.
   
   xtb is distributed in the hope that it will be useful,
   but WITHOUT ANY WARRANTY; without even the implied warranty of
   MERCHANTABILITY or FITNESS FOR A PARTICULAR PURPOSE.  See the
   GNU Lesser General Public License for more details.
   
   Cite this work as:
   * C. Bannwarth, E. Caldeweyher, S. Ehlert, A. Hansen, P. Pracht,
     J. Seibert, S. Spicher, S. Grimme, WIREs Comput. Mol. Sci., 2020, 11,
     e01493. DOI: 10.1002/wcms.1493
   
   for GFN2-xTB:
   * C. Bannwarth, S. Ehlert and S. Grimme., J. Chem. Theory Comput., 2019,
     15, 1652-1671. DOI: 10.1021/acs.jctc.8b01176
   for GFN1-xTB:
   * S. Grimme, C. Bannwarth, P. Shushkov, J. Chem. Theory Comput., 2017,
     13, 1989-2009. DOI: 10.1021/acs.jctc.7b00118
   for GFN0-xTB:
   * P. Pracht, E. Caldeweyher, S. Ehlert, S. Grimme, ChemRxiv, 2019, preprint.
     DOI: 10.26434/chemrxiv.8326202.v1
   for GFN-FF:
   * S. Spicher and S. Grimme, Angew. Chem. Int. Ed., 2020, 59, 15665-15673.
     DOI: 10.1002/anie.202004239
   
   for ALPB and GBSA implicit solvation:
   * S. Ehlert, M. Stahn, S. Spicher, S. Grimme, J. Chem. Theory Comput.,
     2021, 17, 4250-4261. DOI: 10.1021/acs.jctc.1c00471
   
   for ddCOSMO and CPCM-X implicit solvation:
   * M. Stahn, S. Ehlert, S. Grimme, J. Phys. Chem. A,
     2023, XX, XXXX-XXXX. DOI: 10.1021/acs.jpca.3c04382
   
   for DFT-D4:
   * E. Caldeweyher, C. Bannwarth and S. Grimme, J. Chem. Phys., 2017,
     147, 034112. DOI: 10.1063/1.4993215
   * E. Caldeweyher, S. Ehlert, A. Hansen, H. Neugebauer, S. Spicher,
     C. Bannwarth and S. Grimme, J. Chem. Phys., 2019, 150, 154122.
     DOI: 10.1063/1.5090222
   * E. Caldeweyher, J.-M. Mewes, S. Ehlert and S. Grimme, Phys. Chem. Chem. Phys.
     2020, 22, 8499-8512. DOI: 10.1039/D0CP00502A
   
   for sTDA-xTB:
   * S. Grimme and C. Bannwarth, J. Chem. Phys., 2016, 145, 054103.
     DOI: 10.1063/1.4959605
   
   in the mass-spec context:
   * V. Asgeirsson, C. Bauer and S. Grimme, Chem. Sci., 2017, 8, 4879.
     DOI: 10.1039/c7sc00601b
   * J. Koopman and S. Grimme, ACS Omega 2019, 4, 12, 15120-15133.
     DOI: 10.1021/acsomega.9b02011
   
   for metadynamics refer to:
   * S. Grimme, J. Chem. Theory Comput., 2019, 155, 2847-2862
     DOI: 10.1021/acs.jctc.9b00143
   
   for SPH calculations refer to:
   * S. Spicher and S. Grimme, J. Chem. Theory Comput., 2021, 17, 1701-1714
     DOI: 10.1021/acs.jctc.0c01306
   
   for ONIOM refer to:
   * C. Plett, A. Katbashev, S. Ehlert, S. Grimme, M. Bursch,
     Phys. Chem. Chem. Phys., 2023, 25, 17860-17868. DOI: 10.1039/D3CP02178E
   
   for DIPRO refer to:
   * J. Kohn, N. Gildemeister, S. Grimme, D. Fazzi, A. Hansen,
     J. Chem. Phys., 2023, just accepted.
   
   for PTB refer to:
   * S. Grimme, M. Mueller, A. Hansen, J. Chem. Phys., 2023, 158, 124111.
     DOI: 10.1063/5.0137838
   
   with help from (in alphabetical order)
   P. Atkinson, C. Bannwarth, F. Bohle, G. Brandenburg, E. Caldeweyher
   M. Checinski, S. Dohm, S. Ehlert, S. Ehrlich, I. Gerasimov, C. Hölzer
   A. Katbashev, J. Kohn, J. Koopman, C. Lavigne, S. Lehtola, F. März, M. Müller,
   F. Musil, H. Neugebauer, J. Pisarek, C. Plett, P. Pracht, F. Pultar,
   J. Seibert, P. Shushkov, S. Spicher, M. Stahn, M. Steiner, T. Strunk,
   J. Stückrath, T. Rose, and J. Unsleber
   
 * started run on 2024/12/16 at 18:57:31.098     
   ID    Z sym.   atoms
    1    6 C      1, 3-22, 24, 28-31, 33, 34, 36-40
    2    7 N      2, 23, 35
    3   15 P      25
    4   16 S      26, 27
    5    9 F      32
    6    1 H      41-74

           -------------------------------------------------
          |                Calculation Setup                |
           -------------------------------------------------

          program call               : xtb --gfn2 --opt extreme -P 8 --charge 1 molecule.xyz
          hostname                   : node20
          coordinate file            : molecule.xyz
          omp threads                :                     8


           -------------------------------------------------
          |                 G F N 2 - x T B                 |
           -------------------------------------------------

        Reference                      10.1021/acs.jctc.8b01176
      * Hamiltonian:
        H0-scaling (s, p, d)           1.850000    2.230000    2.230000
        zeta-weighting                 0.500000
      * Dispersion:
        s8                             2.700000
        a1                             0.520000
        a2                             5.000000
        s9                             5.000000
      * Repulsion:
        kExp                           1.500000    1.000000
        rExp                           1.000000
      * Coulomb:
        alpha                          2.000000
        third order                    shell-resolved
        anisotropic                    true
        a3                             3.000000
        a5                             4.000000
        cn-shift                       1.200000
        cn-exp                         4.000000
        max-rad                        5.000000


          ...................................................
          :                      SETUP                      :
          :.................................................:
          :  # basis functions                 212          :
          :  # atomic orbitals                 209          :
          :  # shells                          117          :
          :  # electrons                       204          :
          :  max. iterations                   250          :
          :  Hamiltonian                  GFN2-xTB          :
          :  restarted?                      false          :
          :  GBSA solvation                  false          :
          :  PC potential                    false          :
          :  electronic temp.          300.0000000     K    :
          :  accuracy                    1.0000000          :
          :  -> integral cutoff          0.2500000E+02      :
          :  -> integral neglect         0.1000000E-07      :
          :  -> SCF convergence          0.1000000E-05 Eh   :
          :  -> wf. convergence          0.1000000E-03 e    :
          :  Broyden damping             0.4000000          :
          :  net charge                          1          :
          :  unpaired electrons                  0          :
          ...................................................

 iter      E             dE          RMSdq      gap      omega  full diag
   1   -111.6847431 -0.111685E+03  0.446E+00    1.69       0.0  T
   2   -111.8371935 -0.152450E+00  0.270E+00    2.06       1.0  T
   3   -111.8180555  0.191381E-01  0.133E+00    1.85       1.0  T
   4   -111.8414401 -0.233846E-01  0.655E-01    1.54       1.0  T
   5   -111.8648084 -0.233683E-01  0.289E-01    1.64       1.0  T
   6   -111.8673709 -0.256249E-02  0.144E-01    1.61       1.0  T
   7   -111.8687314 -0.136053E-02  0.502E-02    1.62       1.0  T
   8   -111.8687858 -0.543982E-04  0.258E-02    1.62       1.0  T
   9   -111.8687948 -0.905304E-05  0.124E-02    1.63       1.0  T
  10   -111.8687960 -0.120456E-05  0.702E-03    1.63       1.7  T
  11   -111.8687966 -0.561069E-06  0.402E-03    1.62       2.9  T
  12   -111.8687969 -0.329087E-06  0.237E-03    1.62       4.9  T
  13   -111.8687969 -0.141953E-07  0.132E-03    1.62       8.8  T
  14   -111.8687970 -0.449467E-07  0.573E-04    1.62      20.3  T
  15   -111.8687970 -0.325431E-08  0.275E-04    1.62      42.3  T

   *** convergence criteria satisfied after 15 iterations ***

         #    Occupation            Energy/Eh            Energy/eV
      -------------------------------------------------------------
         1        2.0000           -0.9135239             -24.8583
       ...           ...                  ...                  ...
        96        2.0000           -0.5080959             -13.8260
        97        2.0000           -0.5025548             -13.6752
        98        2.0000           -0.4985394             -13.5659
        99        2.0000           -0.4894264             -13.3180
       100        2.0000           -0.4866735             -13.2431
       101        2.0000           -0.4706701             -12.8076
       102        2.0000           -0.4577497             -12.4560 (HOMO)
       103                         -0.3980653             -10.8319 (LUMO)
       104                         -0.3741879             -10.1822
       105                         -0.3634310              -9.8895
       106                         -0.3532261              -9.6118
       107                         -0.3521433              -9.5823
       ...                                ...                  ...
       209                          1.0747757              29.2461
      -------------------------------------------------------------
                  HL-Gap            0.0596844 Eh            1.6241 eV
             Fermi-level           -0.4279075 Eh          -11.6440 eV

 SCC (total)                   0 d,  0 h,  0 min,  2.552 sec
 SCC setup                      ...        0 min,  0.000 sec (  0.011%)
 Dispersion                     ...        0 min,  0.001 sec (  0.042%)
 classical contributions        ...        0 min,  0.004 sec (  0.173%)
 integral evaluation            ...        0 min,  0.007 sec (  0.257%)
 iterations                     ...        0 min,  2.413 sec ( 94.571%)
 molecular gradient             ...        0 min,  0.114 sec (  4.471%)
 printout                       ...        0 min,  0.012 sec (  0.474%)

         :::::::::::::::::::::::::::::::::::::::::::::::::::::
         ::                     SUMMARY                     ::
         :::::::::::::::::::::::::::::::::::::::::::::::::::::
         :: total energy            -110.227631301649 Eh    ::
         :: gradient norm              0.132097578871 Eh/a0 ::
         :: HOMO-LUMO gap              1.624095414396 eV    ::
         ::.................................................::
         :: SCC energy              -111.863586075201 Eh    ::
         :: -> isotropic ES            0.090706480801 Eh    ::
         :: -> anisotropic ES          0.001170664384 Eh    ::
         :: -> anisotropic XC          0.061589120763 Eh    ::
         :: -> dispersion             -0.115466835155 Eh    ::
         :: repulsion energy           1.635954773552 Eh    ::
         :: add. restraining           0.000000000000 Eh    ::
         :: total charge               1.000000000000 e     ::
         :::::::::::::::::::::::::::::::::::::::::::::::::::::

      ----------------------------------------------------------- 
     |                   =====================                   |
     |                        A N C O P T                        |
     |                   =====================                   |
     |               Approximate Normal Coordinate               |
     |                Rational Function Optimizer                |
      ----------------------------------------------------------- 
      ----------------------------------------------------------- 
     |                   =====================                   |
     |                        A N C O P T                        |
     |                   =====================                   |
     |               Approximate Normal Coordinate               |
     |                Rational Function Optimizer                |
      ----------------------------------------------------------- 

          ...................................................
          :                      SETUP                      :
          :.................................................:
          :   optimization level           extreme          :
          :   max. optcycles                  1480          :
          :   ANC micro-cycles                  20          :
          :   degrees of freedom               216          :
          :.................................................:
          :   RF solver                   davidson          :
          :   write xtbopt.log                true          :
          :   linear?                        false          :
          :   energy convergence         0.5000000E-07 Eh   :
          :   grad. convergence          0.5000000E-04 Eh/α :
          :   maxmium RF displ.          1.0000000          :
          :   Hlow (freq-cutoff)         0.1000000E-01      :
          :   Hmax (freq-cutoff)         5.0000000          :
          :   S6 in model hess.         20.0000000          :
          ...................................................

generating ANC from exact Hessian ...
Using Lindh-Hessian (1995)
 Shifting diagonal of input Hessian by    9.8642282015625922E-003
 Lowest  eigenvalues of input Hessian
    0.000000    0.000000    0.000000    0.000000    0.000000    0.000000
    0.010000    0.010074    0.010197    0.010252    0.010298    0.010460
    0.010560    0.010713    0.011149    0.011181    0.011513    0.011818
 Highest eigenvalues
    1.964881    1.988029    2.025317    2.066886    2.069649    2.070822


........................................................................
.............................. CYCLE    1 ..............................
........................................................................

 iter      E             dE          RMSdq      gap      omega  full diag
   1   -111.8687970 -0.111869E+03  0.114E-04    1.62       0.0  T
   2   -111.8687970 -0.938627E-10  0.709E-05    1.62     163.9  T
   3   -111.8687970 -0.377014E-10  0.514E-05    1.62     226.0  T
     SCC iter.                  ...        0 min,  0.311 sec
     gradient                   ...        0 min,  0.113 sec
 * total energy  :  -110.2276313 Eh     change       -0.1535909E-08 Eh
   gradient norm :     0.1320979 Eh/α   predicted     0.0000000E+00 (-100.00%)
   displ. norm   :     0.3943466 α      lambda       -0.2621019E-01
   maximum displ.:     0.1267742 α      in ANC's #22, #20, #68, ...

........................................................................
.............................. CYCLE    2 ..............................
........................................................................

 iter      E             dE          RMSdq      gap      omega  full diag
   1   -111.9363034 -0.111936E+03  0.264E-01    1.74       0.0  T
   2   -111.9364473 -0.143871E-03  0.139E-01    1.81       1.0  T
   3   -111.9363548  0.924864E-04  0.493E-02    1.84       1.0  T
   4   -111.9364609 -0.106111E-03  0.253E-02    1.85       1.0  T
   5   -111.9364832 -0.223175E-04  0.127E-02    1.84       1.0  T
   6   -111.9364901 -0.692491E-05  0.561E-03    1.84       2.1  T
   7   -111.9364907 -0.569575E-06  0.361E-03    1.84       3.2  T
   8   -111.9364909 -0.189517E-06  0.213E-03    1.84       5.5  T
   9   -111.9364909 -0.484598E-07  0.989E-04    1.84      11.8  T
  10   -111.9364909 -0.920915E-08  0.391E-04    1.84      29.7  T
     SCC iter.                  ...        0 min,  1.381 sec
     gradient                   ...        0 min,  0.112 sec
 * total energy  :  -110.2460688 Eh     change       -0.1843749E-01 Eh
   gradient norm :     0.0564634 Eh/α   predicted    -0.1517093E-01 ( -17.72%)
   displ. norm   :     0.4064414 α      lambda       -0.9467015E-02
   maximum displ.:     0.1194133 α      in ANC's #15, #14, #49, ...

........................................................................
.............................. CYCLE    3 ..............................
........................................................................

 iter      E             dE          RMSdq      gap      omega  full diag
   1   -111.9767511 -0.111977E+03  0.190E-01    1.99       0.0  T
   2   -111.9767944 -0.432806E-04  0.101E-01    2.02       1.0  T
   3   -111.9767612  0.332190E-04  0.295E-02    2.04       1.0  T
   4   -111.9768010 -0.398383E-04  0.133E-02    2.04       1.0  T
   5   -111.9768067 -0.562877E-05  0.685E-03    2.04       1.7  T
   6   -111.9768087 -0.203923E-05  0.285E-03    2.04       4.1  T
   7   -111.9768088 -0.910962E-07  0.177E-03    2.04       6.6  T
   8   -111.9768089 -0.634743E-07  0.912E-04    2.04      12.7  T
   9   -111.9768089 -0.828489E-08  0.521E-04    2.04      22.3  T
     SCC iter.                  ...        0 min,  1.244 sec
     gradient                   ...        0 min,  0.116 sec
 * total energy  :  -110.2518693 Eh     change       -0.5800547E-02 Eh
   gradient norm :     0.0128001 Eh/α   predicted    -0.5515461E-02 (  -4.91%)
   displ. norm   :     0.3694024 α      lambda       -0.2193695E-02
   maximum displ.:     0.1574954 α      in ANC's #14, #15, #17, ...

........................................................................
.............................. CYCLE    4 ..............................
........................................................................

 iter      E             dE          RMSdq      gap      omega  full diag
   1   -111.9802879 -0.111980E+03  0.103E-01    2.08       0.0  T
   2   -111.9803055 -0.176415E-04  0.510E-02    2.10       1.0  T
   3   -111.9803017  0.376978E-05  0.155E-02    2.10       1.0  T
   4   -111.9803053 -0.351064E-05  0.881E-03    2.10       1.3  T
   5   -111.9803084 -0.315920E-05  0.330E-03    2.10       3.5  T
   6   -111.9803090 -0.555847E-06  0.161E-03    2.10       7.2  T
   7   -111.9803091 -0.122895E-06  0.482E-04    2.10      24.1  T
   8   -111.9803091 -0.434505E-08  0.272E-04    2.10      42.7  T
     SCC iter.                  ...        0 min,  1.089 sec
     gradient                   ...        0 min,  0.113 sec
 * total energy  :  -110.2534753 Eh     change       -0.1605956E-02 Eh
   gradient norm :     0.0114443 Eh/α   predicted    -0.1246586E-02 ( -22.38%)
   displ. norm   :     0.4645372 α      lambda       -0.1730632E-02
   maximum displ.:     0.2012672 α      in ANC's #15, #14, #10, ...

........................................................................
.............................. CYCLE    5 ..............................
........................................................................

 iter      E             dE          RMSdq      gap      omega  full diag
   1   -111.9818986 -0.111982E+03  0.987E-02    2.13       0.0  T
   2   -111.9819105 -0.119113E-04  0.520E-02    2.13       1.0  T
   3   -111.9819072  0.328934E-05  0.174E-02    2.13       1.0  T
   4   -111.9819129 -0.566540E-05  0.539E-03    2.13       2.2  T
   5   -111.9819129 -0.366157E-07  0.341E-03    2.13       3.4  T
   6   -111.9819133 -0.380689E-06  0.144E-03    2.13       8.0  T
   7   -111.9819133 -0.418569E-07  0.881E-04    2.13      13.2  T
   8   -111.9819134 -0.187841E-07  0.407E-04    2.13      28.6  T
     SCC iter.                  ...        0 min,  1.170 sec
     gradient                   ...        0 min,  0.113 sec
 * total energy  :  -110.2546159 Eh     change       -0.1140586E-02 Eh
   gradient norm :     0.0099879 Eh/α   predicted    -0.1052062E-02 (  -7.76%)
   displ. norm   :     0.3849511 α      lambda       -0.8997904E-03
   maximum displ.:     0.1866497 α      in ANC's #14, #15, #10, ...

........................................................................
.............................. CYCLE    6 ..............................
........................................................................

 iter      E             dE          RMSdq      gap      omega  full diag
   1   -111.9816110 -0.111982E+03  0.981E-02    2.13       0.0  T
   2   -111.9816250 -0.140690E-04  0.439E-02    2.13       1.0  T
   3   -111.9816256 -0.558594E-06  0.118E-02    2.13       1.0  T
   4   -111.9816259 -0.319348E-06  0.663E-03    2.13       1.8  T
   5   -111.9816271 -0.121088E-05  0.193E-03    2.13       6.0  T
   6   -111.9816272 -0.472718E-07  0.853E-04    2.13      13.6  T
   7   -111.9816272 -0.262736E-07  0.469E-04    2.13      24.8  T
     SCC iter.                  ...        0 min,  0.892 sec
     gradient                   ...        0 min,  0.113 sec
 * total energy  :  -110.2551605 Eh     change       -0.5446177E-03 Eh
   gradient norm :     0.0064367 Eh/α   predicted    -0.5165763E-03 (  -5.15%)
   displ. norm   :     0.2591636 α      lambda       -0.4193929E-03
   maximum displ.:     0.1079078 α      in ANC's #14, #15, #10, ...

........................................................................
.............................. CYCLE    7 ..............................
........................................................................

 iter      E             dE          RMSdq      gap      omega  full diag
   1   -111.9839629 -0.111984E+03  0.534E-02    2.14       0.0  T
   2   -111.9839665 -0.358908E-05  0.290E-02    2.13       1.0  T
   3   -111.9839647  0.181908E-05  0.802E-03    2.13       1.4  T
   4   -111.9839664 -0.174297E-05  0.397E-03    2.13       2.9  T
   5   -111.9839672 -0.771803E-06  0.172E-03    2.13       6.8  T
   6   -111.9839673 -0.878194E-07  0.975E-04    2.13      11.9  T
   7   -111.9839673 -0.282498E-07  0.496E-04    2.13      23.5  T
     SCC iter.                  ...        0 min,  0.990 sec
     gradient                   ...        0 min,  0.113 sec
 * total energy  :  -110.2554414 Eh     change       -0.2808686E-03 Eh
   gradient norm :     0.0051787 Eh/α   predicted    -0.2237811E-03 ( -20.33%)
   displ. norm   :     0.1983308 α      lambda       -0.2240686E-03
   maximum displ.:     0.0820421 α      in ANC's #2, #14, #13, ...

........................................................................
.............................. CYCLE    8 ..............................
........................................................................

 iter      E             dE          RMSdq      gap      omega  full diag
   1   -111.9864733 -0.111986E+03  0.384E-02    2.14       0.0  T
   2   -111.9864744 -0.113080E-05  0.216E-02    2.14       1.0  T
   3   -111.9864732  0.124828E-05  0.560E-03    2.14       2.1  T
   4   -111.9864747 -0.153214E-05  0.192E-03    2.14       6.0  T
   5   -111.9864748 -0.112869E-06  0.834E-04    2.14      13.9  T
   6   -111.9864748 -0.222106E-07  0.311E-04    2.14      37.4  T
     SCC iter.                  ...        0 min,  0.724 sec
     gradient                   ...        0 min,  0.124 sec
 * total energy  :  -110.2555941 Eh     change       -0.1527646E-03 Eh
   gradient norm :     0.0037410 Eh/α   predicted    -0.1164417E-03 ( -23.78%)
   displ. norm   :     0.1730838 α      lambda       -0.1271279E-03
   maximum displ.:     0.0869078 α      in ANC's #2, #13, #14, ...

........................................................................
.............................. CYCLE    9 ..............................
........................................................................

 iter      E             dE          RMSdq      gap      omega  full diag
   1   -111.9869375 -0.111987E+03  0.330E-02    2.14       0.0  T
   2   -111.9869388 -0.128834E-05  0.175E-02    2.14       1.0  T
   3   -111.9869382  0.603575E-06  0.532E-03    2.14       2.2  T
   4   -111.9869389 -0.741616E-06  0.244E-03    2.14       4.8  T
   5   -111.9869391 -0.158882E-06  0.990E-04    2.14      11.7  T
   6   -111.9869392 -0.515333E-07  0.393E-04    2.14      29.6  T
     SCC iter.                  ...        0 min,  0.611 sec
     gradient                   ...        0 min,  0.114 sec
 * total energy  :  -110.2556849 Eh     change       -0.9073537E-04 Eh
   gradient norm :     0.0026005 Eh/α   predicted    -0.6546903E-04 ( -27.85%)
   displ. norm   :     0.1879767 α      lambda       -0.1055452E-03
   maximum displ.:     0.1023089 α      in ANC's #2, #13, #3, ...

........................................................................
.............................. CYCLE   10 ..............................
........................................................................

 iter      E             dE          RMSdq      gap      omega  full diag
   1   -111.9870412 -0.111987E+03  0.285E-02    2.14       0.0  T
   2   -111.9870420 -0.792244E-06  0.157E-02    2.14       1.0  T
   3   -111.9870416  0.391932E-06  0.419E-03    2.14       2.8  T
   4   -111.9870420 -0.415873E-06  0.211E-03    2.14       5.5  T
   5   -111.9870421 -0.136021E-06  0.100E-03    2.14      11.6  T
   6   -111.9870422 -0.521184E-07  0.420E-04    2.14      27.7  T
   7   -111.9870422 -0.499318E-08  0.265E-04    2.14      43.9  T
     SCC iter.                  ...        0 min,  1.001 sec
     gradient                   ...        0 min,  0.115 sec
 * total energy  :  -110.2557662 Eh     change       -0.8132619E-04 Eh
   gradient norm :     0.0025083 Eh/α   predicted    -0.5463962E-04 ( -32.81%)
   displ. norm   :     0.2415032 α      lambda       -0.1183280E-03
   maximum displ.:     0.1340592 α      in ANC's #2, #3, #1, ...

........................................................................
.............................. CYCLE   11 ..............................
........................................................................

 iter      E             dE          RMSdq      gap      omega  full diag
   1   -111.9862091 -0.111986E+03  0.371E-02    2.14       0.0  T
   2   -111.9862101 -0.103131E-05  0.201E-02    2.15       1.0  T
   3   -111.9862097  0.452935E-06  0.480E-03    2.15       2.4  T
   4   -111.9862100 -0.303020E-06  0.281E-03    2.15       4.1  T
   5   -111.9862103 -0.376765E-06  0.903E-04    2.15      12.9  T
   6   -111.9862104 -0.514259E-07  0.342E-04    2.15      34.0  T
     SCC iter.                  ...        0 min,  0.649 sec
     gradient                   ...        0 min,  0.113 sec
 * total energy  :  -110.2558613 Eh     change       -0.9509581E-04 Eh
   gradient norm :     0.0034355 Eh/α   predicted    -0.6261757E-04 ( -34.15%)
   displ. norm   :     0.3089474 α      lambda       -0.1374855E-03
   maximum displ.:     0.1733813 α      in ANC's #2, #3, #1, ...

........................................................................
.............................. CYCLE   12 ..............................
........................................................................

 iter      E             dE          RMSdq      gap      omega  full diag
   1   -111.9853648 -0.111985E+03  0.492E-02    2.15       0.0  T
   2   -111.9853662 -0.137315E-05  0.269E-02    2.15       1.0  T
   3   -111.9853655  0.677412E-06  0.594E-03    2.15       2.0  T
   4   -111.9853659 -0.417429E-06  0.347E-03    2.15       3.3  T
   5   -111.9853665 -0.580978E-06  0.102E-03    2.15      11.4  T
   6   -111.9853666 -0.773039E-07  0.363E-04    2.15      32.0  T
   7   -111.9853666 -0.512962E-08  0.188E-04    2.15      61.9  T
     SCC iter.                  ...        0 min,  1.053 sec
     gradient                   ...        0 min,  0.116 sec
 * total energy  :  -110.2559730 Eh     change       -0.1116859E-03 Eh
   gradient norm :     0.0040238 Eh/α   predicted    -0.7530706E-04 ( -32.57%)
   displ. norm   :     0.3541000 α      lambda       -0.1446722E-03
   maximum displ.:     0.2022853 α      in ANC's #2, #3, #1, ...

........................................................................
.............................. CYCLE   13 ..............................
........................................................................

 iter      E             dE          RMSdq      gap      omega  full diag
   1   -111.9848188 -0.111985E+03  0.591E-02    2.16       0.0  T
   2   -111.9848204 -0.160747E-05  0.327E-02    2.16       1.0  T
   3   -111.9848195  0.910128E-06  0.667E-03    2.16       1.7  T
   4   -111.9848201 -0.574456E-06  0.391E-03    2.16       3.0  T
   5   -111.9848208 -0.754679E-06  0.107E-03    2.16      10.9  T
   6   -111.9848209 -0.875960E-07  0.409E-04    2.16      28.4  T
   7   -111.9848209 -0.456544E-08  0.225E-04    2.16      51.6  T
     SCC iter.                  ...        0 min,  0.930 sec
     gradient                   ...        0 min,  0.115 sec
 * total energy  :  -110.2560895 Eh     change       -0.1165292E-03 Eh
   gradient norm :     0.0036466 Eh/α   predicted    -0.8140807E-04 ( -30.14%)
   displ. norm   :     0.3540359 α      lambda       -0.1319459E-03
   maximum displ.:     0.2084307 α      in ANC's #2, #3, #1, ...

........................................................................
.............................. CYCLE   14 ..............................
........................................................................

 iter      E             dE          RMSdq      gap      omega  full diag
   1   -111.9852627 -0.111985E+03  0.606E-02    2.17       0.0  T
   2   -111.9852641 -0.147619E-05  0.339E-02    2.17       1.0  T
   3   -111.9852633  0.876998E-06  0.641E-03    2.17       1.8  T
   4   -111.9852638 -0.571281E-06  0.379E-03    2.17       3.1  T
   5   -111.9852645 -0.713826E-06  0.104E-03    2.17      11.1  T
   6   -111.9852646 -0.779948E-07  0.453E-04    2.17      25.7  T
   7   -111.9852646 -0.496978E-08  0.263E-04    2.17      44.2  T
     SCC iter.                  ...        0 min,  0.953 sec
     gradient                   ...        0 min,  0.113 sec
 * total energy  :  -110.2561943 Eh     change       -0.1048013E-03 Eh
   gradient norm :     0.0028565 Eh/α   predicted    -0.7424640E-04 ( -29.16%)
   displ. norm   :     0.3167636 α      lambda       -0.1038120E-03
   maximum displ.:     0.1947284 α      in ANC's #2, #3, #1, ...

........................................................................
.............................. CYCLE   15 ..............................
........................................................................

 iter      E             dE          RMSdq      gap      omega  full diag
   1   -111.9864556 -0.111986E+03  0.548E-02    2.18       0.0  T
   2   -111.9864568 -0.120552E-05  0.310E-02    2.18       1.0  T
   3   -111.9864559  0.902226E-06  0.580E-03    2.18       2.0  T
   4   -111.9864566 -0.717304E-06  0.333E-03    2.18       3.5  T
   5   -111.9864571 -0.535811E-06  0.101E-03    2.18      11.5  T
   6   -111.9864572 -0.664764E-07  0.465E-04    2.18      25.0  T
   7   -111.9864572 -0.588001E-08  0.276E-04    2.18      42.1  T
     SCC iter.                  ...        0 min,  0.870 sec
     gradient                   ...        0 min,  0.113 sec
 * total energy  :  -110.2562757 Eh     change       -0.8135266E-04 Eh
   gradient norm :     0.0023750 Eh/α   predicted    -0.5711881E-04 ( -29.79%)
   displ. norm   :     0.2550719 α      lambda       -0.6977556E-04
   maximum displ.:     0.1654975 α      in ANC's #2, #3, #1, ...

........................................................................
.............................. CYCLE   16 ..............................
........................................................................

 iter      E             dE          RMSdq      gap      omega  full diag
   1   -111.9875987 -0.111988E+03  0.442E-02    2.19       0.0  T
   2   -111.9875995 -0.804207E-06  0.250E-02    2.19       1.0  T
   3   -111.9875986  0.895306E-06  0.498E-03    2.19       2.3  T
   4   -111.9875995 -0.849443E-06  0.261E-03    2.19       4.4  T
   5   -111.9875998 -0.307316E-06  0.857E-04    2.19      13.6  T
   6   -111.9875998 -0.502300E-07  0.367E-04    2.19      31.6  T
     SCC iter.                  ...        0 min,  0.815 sec
     gradient                   ...        0 min,  0.113 sec
 * total energy  :  -110.2563309 Eh     change       -0.5520803E-04 Eh
   gradient norm :     0.0020026 Eh/α   predicted    -0.3716155E-04 ( -32.69%)
   displ. norm   :     0.1781380 α      lambda       -0.4311772E-04
   maximum displ.:     0.1232744 α      in ANC's #2, #3, #1, ...

........................................................................
.............................. CYCLE   17 ..............................
........................................................................

 iter      E             dE          RMSdq      gap      omega  full diag
   1   -111.9882669 -0.111988E+03  0.311E-02    2.19       0.0  T
   2   -111.9882673 -0.422088E-06  0.176E-02    2.19       1.0  T
   3   -111.9882666  0.674151E-06  0.385E-03    2.19       3.0  T
   4   -111.9882673 -0.693484E-06  0.179E-03    2.19       6.5  T
   5   -111.9882674 -0.126587E-06  0.697E-04    2.19      16.7  T
   6   -111.9882675 -0.358991E-07  0.249E-04    2.19      46.6  T
     SCC iter.                  ...        0 min,  0.742 sec
     gradient                   ...        0 min,  0.117 sec
 * total energy  :  -110.2563662 Eh     change       -0.3537867E-04 Eh
   gradient norm :     0.0014163 Eh/α   predicted    -0.2224390E-04 ( -37.13%)
   displ. norm   :     0.1820823 α      lambda       -0.2924658E-04
   maximum displ.:     0.1342135 α      in ANC's #2, #1, #3, ...

........................................................................
.............................. CYCLE   18 ..............................
........................................................................

 iter      E             dE          RMSdq      gap      omega  full diag
   1   -111.9884925 -0.111988E+03  0.319E-02    2.20       0.0  T
   2   -111.9884929 -0.422253E-06  0.182E-02    2.20       1.0  T
   3   -111.9884920  0.925427E-06  0.413E-03    2.20       2.8  T
   4   -111.9884930 -0.100506E-05  0.163E-03    2.20       7.1  T
   5   -111.9884931 -0.818417E-07  0.749E-04    2.20      15.5  T
   6   -111.9884931 -0.413152E-07  0.235E-04    2.20      49.5  T
     SCC iter.                  ...        0 min,  0.799 sec
     gradient                   ...        0 min,  0.117 sec
 * total energy  :  -110.2564007 Eh     change       -0.3441627E-04 Eh
   gradient norm :     0.0011778 Eh/α   predicted    -0.1484143E-04 ( -56.88%)
   displ. norm   :     0.1145389 α      lambda       -0.1878531E-04
   maximum displ.:     0.0872455 α      in ANC's #2, #1, #8, ...

........................................................................
.............................. CYCLE   19 ..............................
........................................................................

 iter      E             dE          RMSdq      gap      omega  full diag
   1   -111.9881600 -0.111988E+03  0.191E-02    2.20       0.0  T
   2   -111.9881601 -0.109942E-06  0.110E-02    2.20       1.1  T
   3   -111.9881598  0.374381E-06  0.241E-03    2.20       4.8  T
   4   -111.9881602 -0.405588E-06  0.837E-04    2.20      13.9  T
   5   -111.9881602 -0.224757E-07  0.408E-04    2.20      28.5  T
     SCC iter.                  ...        0 min,  0.520 sec
     gradient                   ...        0 min,  0.112 sec
 * total energy  :  -110.2564260 Eh     change       -0.2529459E-04 Eh
   gradient norm :     0.0012591 Eh/α   predicted    -0.9448201E-05 ( -62.65%)
   displ. norm   :     0.1325831 α      lambda       -0.2431266E-04
   maximum displ.:     0.0937594 α      in ANC's #2, #8, #1, ...

........................................................................
.............................. CYCLE   20 ..............................
........................................................................

 iter      E             dE          RMSdq      gap      omega  full diag
   1   -111.9880743 -0.111988E+03  0.211E-02    2.20       0.0  T
   2   -111.9880745 -0.129538E-06  0.122E-02    2.20       1.0  T
   3   -111.9880740  0.465719E-06  0.263E-03    2.20       4.4  T
   4   -111.9880745 -0.516819E-06  0.803E-04    2.20      14.5  T
   5   -111.9880745 -0.179002E-07  0.436E-04    2.20      26.7  T
     SCC iter.                  ...        0 min,  0.579 sec
     gradient                   ...        0 min,  0.121 sec
 * total energy  :  -110.2564586 Eh     change       -0.3265536E-04 Eh
   gradient norm :     0.0011779 Eh/α   predicted    -0.1225237E-04 ( -62.48%)
   displ. norm   :     0.2064845 α      lambda       -0.3406803E-04
   maximum displ.:     0.1386473 α      in ANC's #2, #8, #1, ...
 * RMSD in coord.:     0.4339788 α      energy gain  -0.2882731E-01 Eh

generating ANC from exact Hessian ...
Using Lindh-Hessian (1995)
 Shifting diagonal of input Hessian by    9.8559466015168719E-003
 Lowest  eigenvalues of input Hessian
    0.000000    0.000000    0.000000    0.000000    0.000000    0.000000
    0.010000    0.010142    0.010242    0.010295    0.010327    0.010534
    0.010606    0.010662    0.011004    0.011185    0.011588    0.011826
 Highest eigenvalues
    2.024637    2.025344    2.072310    2.113008    2.117553    2.124655


........................................................................
.............................. CYCLE   21 ..............................
........................................................................

 iter      E             dE          RMSdq      gap      omega  full diag
   1   -111.9872733 -0.111987E+03  0.316E-02    2.20       0.0  T
   2   -111.9872736 -0.351300E-06  0.183E-02    2.20       1.0  T
   3   -111.9872725  0.113659E-05  0.418E-03    2.20       2.8  T
   4   -111.9872738 -0.125709E-05  0.131E-03    2.20       8.9  T
   5   -111.9872738 -0.549759E-07  0.710E-04    2.20      16.4  T
   6   -111.9872738 -0.293724E-07  0.242E-04    2.20      48.1  T
     SCC iter.                  ...        0 min,  0.782 sec
     gradient                   ...        0 min,  0.113 sec
 * total energy  :  -110.2565024 Eh     change       -0.4378324E-04 Eh
   gradient norm :     0.0010375 Eh/α   predicted     0.0000000E+00 (-100.00%)
   displ. norm   :     0.0394975 α      lambda       -0.9775973E-05
   maximum displ.:     0.0227929 α      in ANC's #2, #8, #3, ...

........................................................................
.............................. CYCLE   22 ..............................
........................................................................

 iter      E             dE          RMSdq      gap      omega  full diag
   1   -111.9880843 -0.111988E+03  0.684E-03    2.20       0.0  T
   2   -111.9880843 -0.429816E-07  0.377E-03    2.20       3.1  T
   3   -111.9880843  0.498784E-08  0.802E-04    2.20      14.5  T
   4   -111.9880843 -0.608608E-08  0.407E-04    2.20      28.6  T
     SCC iter.                  ...        0 min,  0.383 sec
     gradient                   ...        0 min,  0.111 sec
 * total energy  :  -110.2565151 Eh     change       -0.1268014E-04 Eh
   gradient norm :     0.0004673 Eh/α   predicted    -0.4909988E-05 ( -61.28%)
   displ. norm   :     0.1496633 α      lambda       -0.2836526E-04
   maximum displ.:     0.0808798 α      in ANC's #2, #8, #3, ...

........................................................................
.............................. CYCLE   23 ..............................
........................................................................

 iter      E             dE          RMSdq      gap      omega  full diag
   1   -111.9888252 -0.111989E+03  0.227E-02    2.20       0.0  T
   2   -111.9888256 -0.387391E-06  0.127E-02    2.20       1.0  T
   3   -111.9888254  0.193147E-06  0.279E-03    2.20       4.2  T
   4   -111.9888256 -0.130173E-06  0.165E-03    2.20       7.0  T
   5   -111.9888257 -0.144937E-06  0.677E-04    2.20      17.2  T
   6   -111.9888257 -0.265234E-07  0.237E-04    2.20      49.1  T
     SCC iter.                  ...        0 min,  0.860 sec
     gradient                   ...        0 min,  0.114 sec
 * total energy  :  -110.2565469 Eh     change       -0.3178178E-04 Eh
   gradient norm :     0.0014166 Eh/α   predicted    -0.1432695E-04 ( -54.92%)
   displ. norm   :     0.2234311 α      lambda       -0.3250542E-04
   maximum displ.:     0.1242170 α      in ANC's #2, #8, #3, ...

........................................................................
.............................. CYCLE   24 ..............................
........................................................................

 iter      E             dE          RMSdq      gap      omega  full diag
   1   -111.9887205 -0.111989E+03  0.435E-02    2.20       0.0  T
   2   -111.9887224 -0.185796E-05  0.220E-02    2.20       1.0  T
   3   -111.9887226 -0.170963E-06  0.505E-03    2.20       2.3  T
   4   -111.9887225  0.769169E-07  0.221E-03    2.20       5.3  T
   5   -111.9887227 -0.179041E-06  0.896E-04    2.20      13.0  T
   6   -111.9887227 -0.292480E-07  0.426E-04    2.20      27.3  T
     SCC iter.                  ...        0 min,  0.848 sec
     gradient                   ...        0 min,  0.120 sec
 * total energy  :  -110.2565763 Eh     change       -0.2939706E-04 Eh
   gradient norm :     0.0022974 Eh/α   predicted    -0.1661368E-04 ( -43.49%)
   displ. norm   :     0.1584140 α      lambda       -0.3567838E-04
   maximum displ.:     0.0906502 α      in ANC's #2, #8, #3, ...

........................................................................
.............................. CYCLE   25 ..............................
........................................................................

 iter      E             dE          RMSdq      gap      omega  full diag
   1   -111.9885299 -0.111989E+03  0.221E-02    2.20       0.0  T
   2   -111.9885302 -0.348167E-06  0.125E-02    2.20       1.0  T
   3   -111.9885299  0.347762E-06  0.284E-03    2.20       4.1  T
   4   -111.9885302 -0.266325E-06  0.160E-03    2.20       7.3  T
   5   -111.9885303 -0.177038E-06  0.577E-04    2.20      20.1  T
   6   -111.9885303 -0.123082E-07  0.244E-04    2.20      47.7  T
     SCC iter.                  ...        0 min,  0.838 sec
     gradient                   ...        0 min,  0.114 sec
 * total energy  :  -110.2566048 Eh     change       -0.2852697E-04 Eh
   gradient norm :     0.0021269 Eh/α   predicted    -0.1828777E-04 ( -35.89%)
   displ. norm   :     0.2215935 α      lambda       -0.4962760E-04
   maximum displ.:     0.1288563 α      in ANC's #2, #8, #3, ...

........................................................................
.............................. CYCLE   26 ..............................
........................................................................

 iter      E             dE          RMSdq      gap      omega  full diag
   1   -111.9883253 -0.111988E+03  0.323E-02    2.20       0.0  T
   2   -111.9883263 -0.106126E-05  0.174E-02    2.20       1.0  T
   3   -111.9883259  0.474011E-06  0.488E-03    2.20       2.4  T
   4   -111.9883263 -0.470336E-06  0.247E-03    2.21       4.7  T
   5   -111.9883265 -0.174987E-06  0.127E-03    2.20       9.1  T
   6   -111.9883266 -0.113768E-06  0.392E-04    2.20      29.7  T
   7   -111.9883266 -0.389608E-08  0.222E-04    2.20      52.4  T
     SCC iter.                  ...        0 min,  0.626 sec
     gradient                   ...        0 min,  0.114 sec
 * total energy  :  -110.2566464 Eh     change       -0.4164571E-04 Eh
   gradient norm :     0.0015361 Eh/α   predicted    -0.2603284E-04 ( -37.49%)
   displ. norm   :     0.4408074 α      lambda       -0.6347147E-04
   maximum displ.:     0.2580746 α      in ANC's #2, #8, #3, ...

........................................................................
.............................. CYCLE   27 ..............................
........................................................................

 iter      E             dE          RMSdq      gap      omega  full diag
   1   -111.9872153 -0.111987E+03  0.612E-02    2.20       0.0  T
   2   -111.9872177 -0.243365E-05  0.336E-02    2.21       1.0  T
   3   -111.9872159  0.184402E-05  0.782E-03    2.21       1.5  T
   4   -111.9872175 -0.160617E-05  0.421E-03    2.21       2.8  T
   5   -111.9872183 -0.800258E-06  0.185E-03    2.21       6.3  T
   6   -111.9872185 -0.224256E-06  0.603E-04    2.21      19.3  T
   7   -111.9872185 -0.782070E-08  0.331E-04    2.21      35.1  T
     SCC iter.                  ...        0 min,  0.956 sec
     gradient                   ...        0 min,  0.115 sec
 * total energy  :  -110.2567219 Eh     change       -0.7546969E-04 Eh
   gradient norm :     0.0016615 Eh/α   predicted    -0.3448002E-04 ( -54.31%)
   displ. norm   :     0.4378738 α      lambda       -0.6010473E-04
   maximum displ.:     0.2578093 α      in ANC's #2, #8, #3, ...

........................................................................
.............................. CYCLE   28 ..............................
........................................................................

 iter      E             dE          RMSdq      gap      omega  full diag
   1   -111.9862239 -0.111986E+03  0.605E-02    2.21       0.0  T
   2   -111.9862263 -0.244394E-05  0.326E-02    2.21       1.0  T
   3   -111.9862248  0.150137E-05  0.751E-03    2.21       1.5  T
   4   -111.9862257 -0.884475E-06  0.455E-03    2.21       2.6  T
   5   -111.9862269 -0.119913E-05  0.162E-03    2.21       7.2  T
   6   -111.9862270 -0.152092E-06  0.613E-04    2.21      19.0  T
   7   -111.9862270 -0.823057E-08  0.336E-04    2.21      34.6  T
     SCC iter.                  ...        0 min,  0.986 sec
     gradient                   ...        0 min,  0.113 sec
 * total energy  :  -110.2567979 Eh     change       -0.7595979E-04 Eh
   gradient norm :     0.0026294 Eh/α   predicted    -0.3261347E-04 ( -57.06%)
   displ. norm   :     0.3621022 α      lambda       -0.7817335E-04
   maximum displ.:     0.2117950 α      in ANC's #2, #8, #1, ...

........................................................................
.............................. CYCLE   29 ..............................
........................................................................

 iter      E             dE          RMSdq      gap      omega  full diag
   1   -111.9860593 -0.111986E+03  0.475E-02    2.21       0.0  T
   2   -111.9860607 -0.138221E-05  0.258E-02    2.21       1.0  T
   3   -111.9860595  0.116027E-05  0.591E-03    2.21       2.0  T
   4   -111.9860603 -0.761126E-06  0.357E-03    2.21       3.3  T
   5   -111.9860611 -0.777332E-06  0.121E-03    2.21       9.6  T
   6   -111.9860611 -0.822896E-07  0.467E-04    2.21      24.9  T
   7   -111.9860612 -0.467003E-08  0.258E-04    2.21      45.1  T
     SCC iter.                  ...        0 min,  1.001 sec
     gradient                   ...        0 min,  0.113 sec
 * total energy  :  -110.2568681 Eh     change       -0.7026733E-04 Eh
   gradient norm :     0.0029587 Eh/α   predicted    -0.4421337E-04 ( -37.08%)
   displ. norm   :     0.5281671 α      lambda       -0.1202377E-03
   maximum displ.:     0.3081083 α      in ANC's #2, #8, #1, ...

........................................................................
.............................. CYCLE   30 ..............................
........................................................................

 iter      E             dE          RMSdq      gap      omega  full diag
   1   -111.9857250 -0.111986E+03  0.679E-02    2.20       0.0  T
   2   -111.9857278 -0.283419E-05  0.370E-02    2.20       1.0  T
   3   -111.9857252  0.263357E-05  0.868E-03    2.20       1.3  T
   4   -111.9857270 -0.178644E-05  0.523E-03    2.21       2.2  T
   5   -111.9857286 -0.165185E-05  0.176E-03    2.20       6.6  T
   6   -111.9857288 -0.172294E-06  0.670E-04    2.20      17.3  T
   7   -111.9857288 -0.825909E-08  0.382E-04    2.20      30.4  T
     SCC iter.                  ...        0 min,  1.033 sec
     gradient                   ...        0 min,  0.117 sec
 * total energy  :  -110.2569721 Eh     change       -0.1039407E-03 Eh
   gradient norm :     0.0030615 Eh/α   predicted    -0.7689341E-04 ( -26.02%)
   displ. norm   :     0.5825879 α      lambda       -0.1313008E-03
   maximum displ.:     0.3394930 α      in ANC's #2, #1, #8, ...

........................................................................
.............................. CYCLE   31 ..............................
........................................................................

 iter      E             dE          RMSdq      gap      omega  full diag
   1   -111.9852003 -0.111985E+03  0.728E-02    2.20       0.0  T
   2   -111.9852034 -0.308356E-05  0.399E-02    2.20       1.0  T
   3   -111.9852002  0.320265E-05  0.928E-03    2.20       1.3  T
   4   -111.9852025 -0.234124E-05  0.548E-03    2.20       2.1  T
   5   -111.9852043 -0.177562E-05  0.188E-03    2.20       6.2  T
   6   -111.9852045 -0.204517E-06  0.699E-04    2.20      16.6  T
   7   -111.9852045 -0.776207E-08  0.407E-04    2.20      28.6  T
     SCC iter.                  ...        0 min,  0.723 sec
     gradient                   ...        0 min,  0.110 sec
 * total energy  :  -110.2570831 Eh     change       -0.1110578E-03 Eh
   gradient norm :     0.0029151 Eh/α   predicted    -0.8793583E-04 ( -20.82%)
   displ. norm   :     0.5009863 α      lambda       -0.1312607E-03
   maximum displ.:     0.2888908 α      in ANC's #2, #1, #8, ...

........................................................................
.............................. CYCLE   32 ..............................
........................................................................

 iter      E             dE          RMSdq      gap      omega  full diag
   1   -111.9863478 -0.111986E+03  0.603E-02    2.20       0.0  T
   2   -111.9863497 -0.197147E-05  0.336E-02    2.20       1.0  T
   3   -111.9863477  0.201206E-05  0.743E-03    2.20       1.6  T
   4   -111.9863493 -0.161269E-05  0.420E-03    2.20       2.8  T
   5   -111.9863503 -0.955042E-06  0.160E-03    2.20       7.3  T
   6   -111.9863504 -0.158600E-06  0.597E-04    2.20      19.5  T
   7   -111.9863505 -0.478646E-08  0.364E-04    2.20      31.9  T
     SCC iter.                  ...        0 min,  1.194 sec
     gradient                   ...        0 min,  0.121 sec
 * total energy  :  -110.2571943 Eh     change       -0.1111409E-03 Eh
   gradient norm :     0.0020756 Eh/α   predicted    -0.8210289E-04 ( -26.13%)
   displ. norm   :     0.5107052 α      lambda       -0.1399857E-03
   maximum displ.:     0.2895471 α      in ANC's #2, #1, #4, ...

........................................................................
.............................. CYCLE   33 ..............................
........................................................................

 iter      E             dE          RMSdq      gap      omega  full diag
   1   -111.9865479 -0.111987E+03  0.596E-02    2.20       0.0  T
   2   -111.9865500 -0.206028E-05  0.332E-02    2.20       1.0  T
   3   -111.9865480  0.199596E-05  0.744E-03    2.20       1.6  T
   4   -111.9865496 -0.160948E-05  0.421E-03    2.20       2.8  T
   5   -111.9865506 -0.950458E-06  0.167E-03    2.20       7.0  T
   6   -111.9865507 -0.175252E-06  0.598E-04    2.20      19.4  T
   7   -111.9865507 -0.434150E-08  0.361E-04    2.20      32.2  T
     SCC iter.                  ...        0 min,  0.871 sec
     gradient                   ...        0 min,  0.113 sec
 * total energy  :  -110.2573173 Eh     change       -0.1229947E-03 Eh
   gradient norm :     0.0021815 Eh/α   predicted    -0.8824990E-04 ( -28.25%)
   displ. norm   :     0.5086687 α      lambda       -0.1683845E-03
   maximum displ.:     0.2725725 α      in ANC's #2, #1, #4, ...

........................................................................
.............................. CYCLE   34 ..............................
........................................................................

 iter      E             dE          RMSdq      gap      omega  full diag
   1   -111.9889201 -0.111989E+03  0.559E-02    2.21       0.0  T
   2   -111.9889219 -0.185271E-05  0.315E-02    2.21       1.0  T
   3   -111.9889207  0.121985E-05  0.644E-03    2.21       1.8  T
   4   -111.9889218 -0.109107E-05  0.338E-03    2.21       3.4  T
   5   -111.9889223 -0.515207E-06  0.158E-03    2.21       7.4  T
   6   -111.9889225 -0.168399E-06  0.579E-04    2.21      20.1  T
   7   -111.9889225 -0.606153E-08  0.341E-04    2.21      34.1  T
     SCC iter.                  ...        0 min,  1.084 sec
     gradient                   ...        0 min,  0.113 sec
 * total energy  :  -110.2574607 Eh     change       -0.1434016E-03 Eh
   gradient norm :     0.0030685 Eh/α   predicted    -0.1059764E-03 ( -26.10%)
   displ. norm   :     0.6465603 α      lambda       -0.1943254E-03
   maximum displ.:     0.3495671 α      in ANC's #2, #1, #4, ...

........................................................................
.............................. CYCLE   35 ..............................
........................................................................

 iter      E             dE          RMSdq      gap      omega  full diag
   1   -111.9863973 -0.111986E+03  0.738E-02    2.21       0.0  T
   2   -111.9864007 -0.336897E-05  0.410E-02    2.21       1.0  T
   3   -111.9863978  0.290843E-05  0.917E-03    2.21       1.3  T
   4   -111.9864001 -0.230923E-05  0.517E-03    2.22       2.3  T
   5   -111.9864015 -0.146346E-05  0.207E-03    2.22       5.6  T
   6   -111.9864018 -0.287369E-06  0.670E-04    2.22      17.3  T
   7   -111.9864018 -0.643010E-08  0.368E-04    2.22      31.6  T
     SCC iter.                  ...        0 min,  0.981 sec
     gradient                   ...        0 min,  0.114 sec
 * total energy  :  -110.2576305 Eh     change       -0.1698791E-03 Eh
   gradient norm :     0.0043514 Eh/α   predicted    -0.1377808E-03 ( -18.89%)
   displ. norm   :     0.5734027 α      lambda       -0.2201119E-03
   maximum displ.:     0.3211930 α      in ANC's #1, #2, #4, ...

........................................................................
.............................. CYCLE   36 ..............................
........................................................................

 iter      E             dE          RMSdq      gap      omega  full diag
   1   -111.9874532 -0.111987E+03  0.630E-02    2.22       0.0  T
   2   -111.9874553 -0.209541E-05  0.351E-02    2.22       1.0  T
   3   -111.9874542  0.107967E-05  0.679E-03    2.22       1.7  T
   4   -111.9874551 -0.855096E-06  0.364E-03    2.23       3.2  T
   5   -111.9874558 -0.679988E-06  0.155E-03    2.22       7.5  T
   6   -111.9874559 -0.165212E-06  0.569E-04    2.22      20.4  T
   7   -111.9874559 -0.808976E-08  0.290E-04    2.22      40.1  T
     SCC iter.                  ...        0 min,  0.922 sec
     gradient                   ...        0 min,  0.112 sec
 * total energy  :  -110.2578255 Eh     change       -0.1949804E-03 Eh
   gradient norm :     0.0041425 Eh/α   predicted    -0.1462438E-03 ( -25.00%)
   displ. norm   :     0.6494003 α      lambda       -0.2531821E-03
   maximum displ.:     0.3711425 α      in ANC's #1, #2, #4, ...

........................................................................
.............................. CYCLE   37 ..............................
........................................................................

 iter      E             dE          RMSdq      gap      omega  full diag
   1   -111.9875121 -0.111988E+03  0.739E-02    2.23       0.0  T
   2   -111.9875148 -0.276523E-05  0.410E-02    2.23       1.0  T
   3   -111.9875134  0.146246E-05  0.777E-03    2.23       1.5  T
   4   -111.9875143 -0.952708E-06  0.439E-03    2.23       2.6  T
   5   -111.9875155 -0.112723E-05  0.166E-03    2.23       7.0  T
   6   -111.9875156 -0.173540E-06  0.638E-04    2.23      18.2  T
   7   -111.9875156 -0.128950E-07  0.284E-04    2.23      41.0  T
     SCC iter.                  ...        0 min,  0.921 sec
     gradient                   ...        0 min,  0.113 sec
 * total energy  :  -110.2580511 Eh     change       -0.2256108E-03 Eh
   gradient norm :     0.0034956 Eh/α   predicted    -0.1799794E-03 ( -20.23%)
   displ. norm   :     0.6412068 α      lambda       -0.2663773E-03
   maximum displ.:     0.3837835 α      in ANC's #1, #2, #4, ...

........................................................................
.............................. CYCLE   38 ..............................
........................................................................

 iter      E             dE          RMSdq      gap      omega  full diag
   1   -111.9892551 -0.111989E+03  0.758E-02    2.24       0.0  T
   2   -111.9892580 -0.291820E-05  0.422E-02    2.24       1.0  T
   3   -111.9892564  0.161883E-05  0.798E-03    2.24       1.5  T
   4   -111.9892577 -0.128273E-05  0.427E-03    2.24       2.7  T
   5   -111.9892587 -0.977852E-06  0.169E-03    2.24       6.9  T
   6   -111.9892588 -0.169490E-06  0.648E-04    2.24      17.9  T
   7   -111.9892589 -0.151618E-07  0.284E-04    2.24      41.0  T
     SCC iter.                  ...        0 min,  0.853 sec
     gradient                   ...        0 min,  0.113 sec
 * total energy  :  -110.2582777 Eh     change       -0.2265535E-03 Eh
   gradient norm :     0.0030774 Eh/α   predicted    -0.1879500E-03 ( -17.04%)
   displ. norm   :     0.6805818 α      lambda       -0.2370195E-03
   maximum displ.:     0.4088614 α      in ANC's #1, #2, #4, ...

........................................................................
.............................. CYCLE   39 ..............................
........................................................................

 iter      E             dE          RMSdq      gap      omega  full diag
   1   -111.9872477 -0.111987E+03  0.807E-02    2.24       0.0  T
   2   -111.9872511 -0.342007E-05  0.453E-02    2.25       1.0  T
   3   -111.9872484  0.274244E-05  0.871E-03    2.25       1.3  T
   4   -111.9872504 -0.202161E-05  0.482E-03    2.25       2.4  T
   5   -111.9872520 -0.152830E-05  0.174E-03    2.25       6.7  T
   6   -111.9872521 -0.160056E-06  0.716E-04    2.25      16.2  T
   7   -111.9872521 -0.191307E-07  0.288E-04    2.25      40.4  T
     SCC iter.                  ...        0 min,  0.801 sec
     gradient                   ...        0 min,  0.140 sec
 * total energy  :  -110.2584763 Eh     change       -0.1986449E-03 Eh
   gradient norm :     0.0037463 Eh/α   predicted    -0.1734030E-03 ( -12.71%)
   displ. norm   :     0.5191364 α      lambda       -0.2346640E-03
   maximum displ.:     0.3427471 α      in ANC's #1, #2, #3, ...

........................................................................
.............................. CYCLE   40 ..............................
........................................................................

 iter      E             dE          RMSdq      gap      omega  full diag
   1   -111.9934170 -0.111993E+03  0.668E-02    2.25       0.0  T
   2   -111.9934199 -0.287837E-05  0.384E-02    2.26       1.0  T
   3   -111.9934173  0.256983E-05  0.810E-03    2.26       1.4  T
   4   -111.9934201 -0.281678E-05  0.308E-03    2.26       3.8  T
   5   -111.9934206 -0.447776E-06  0.154E-03    2.26       7.6  T
   6   -111.9934207 -0.113679E-06  0.569E-04    2.26      20.4  T
   7   -111.9934207 -0.100092E-07  0.293E-04    2.26      39.7  T
     SCC iter.                  ...        0 min,  0.883 sec
     gradient                   ...        0 min,  0.115 sec
 * total energy  :  -110.2586421 Eh     change       -0.1657963E-03 Eh
   gradient norm :     0.0044582 Eh/α   predicted    -0.1489557E-03 ( -10.16%)
   displ. norm   :     0.6429855 α      lambda       -0.2184764E-03
   maximum displ.:     0.4087877 α      in ANC's #1, #2, #4, ...

........................................................................
.............................. CYCLE   41 ..............................
........................................................................

 iter      E             dE          RMSdq      gap      omega  full diag
   1   -111.9896107 -0.111990E+03  0.795E-02    2.26       0.0  T
   2   -111.9896139 -0.315544E-05  0.455E-02    2.26       1.0  T
   3   -111.9896103  0.361569E-05  0.881E-03    2.26       1.3  T
   4   -111.9896138 -0.347468E-05  0.408E-03    2.26       2.8  T
   5   -111.9896148 -0.101675E-05  0.168E-03    2.26       6.9  T
   6   -111.9896149 -0.151016E-06  0.720E-04    2.26      16.1  T
   7   -111.9896149 -0.195580E-07  0.322E-04    2.26      36.1  T
     SCC iter.                  ...        0 min,  0.910 sec
     gradient                   ...        0 min,  0.119 sec
 * total energy  :  -110.2588176 Eh     change       -0.1754622E-03 Eh
   gradient norm :     0.0044515 Eh/α   predicted    -0.1544012E-03 ( -12.00%)
   displ. norm   :     0.3571942 α      lambda       -0.1713614E-03
   maximum displ.:     0.2482154 α      in ANC's #1, #2, #8, ...

........................................................................
.............................. CYCLE   42 ..............................
........................................................................

 iter      E             dE          RMSdq      gap      omega  full diag
   1   -111.9897968 -0.111990E+03  0.519E-02    2.26       0.0  T
   2   -111.9897979 -0.111402E-05  0.301E-02    2.26       1.0  T
   3   -111.9897961  0.184731E-05  0.602E-03    2.26       1.9  T
   4   -111.9897981 -0.202716E-05  0.217E-03    2.26       5.3  T
   5   -111.9897983 -0.190866E-06  0.106E-03    2.26      11.0  T
   6   -111.9897984 -0.630211E-07  0.430E-04    2.26      27.0  T
   7   -111.9897984 -0.890589E-08  0.194E-04    2.26      59.9  T
     SCC iter.                  ...        0 min,  0.967 sec
     gradient                   ...        0 min,  0.113 sec
 * total energy  :  -110.2589583 Eh     change       -0.1406702E-03 Eh
   gradient norm :     0.0040061 Eh/α   predicted    -0.9661542E-04 ( -31.32%)
   displ. norm   :     0.4369122 α      lambda       -0.2147374E-03
   maximum displ.:     0.3155375 α      in ANC's #1, #3, #2, ...
 * RMSD in coord.:     1.0229424 α      energy gain  -0.2499645E-02 Eh

generating ANC from exact Hessian ...
Using Lindh-Hessian (1995)
 Shifting diagonal of input Hessian by    9.8032539942518575E-003
 Lowest  eigenvalues of input Hessian
    0.000000    0.000000    0.000000    0.000000    0.000000    0.000000
    0.010000    0.010129    0.010202    0.010313    0.010419    0.010470
    0.010735    0.010768    0.011129    0.011398    0.011599    0.011664
 Highest eigenvalues
    2.027490    2.028375    2.072834    2.111310    2.120169    2.125536


........................................................................
.............................. CYCLE   43 ..............................
........................................................................

 iter      E             dE          RMSdq      gap      omega  full diag
   1   -111.9919517 -0.111992E+03  0.686E-02    2.26       0.0  T
   2   -111.9919538 -0.208283E-05  0.399E-02    2.26       1.0  T
   3   -111.9919510  0.277171E-05  0.799E-03    2.26       1.5  T
   4   -111.9919543 -0.328309E-05  0.272E-03    2.26       4.3  T
   5   -111.9919545 -0.213427E-06  0.125E-03    2.26       9.3  T
   6   -111.9919545 -0.579627E-07  0.611E-04    2.26      19.0  T
   7   -111.9919546 -0.160927E-07  0.324E-04    2.26      35.9  T
     SCC iter.                  ...        0 min,  0.846 sec
     gradient                   ...        0 min,  0.117 sec
 * total energy  :  -110.2591171 Eh     change       -0.1588361E-03 Eh
   gradient norm :     0.0036994 Eh/α   predicted     0.0000000E+00 (-100.00%)
   displ. norm   :     0.0497004 α      lambda       -0.4735540E-04
   maximum displ.:     0.0311164 α      in ANC's #1, #2, #7, ...

........................................................................
.............................. CYCLE   44 ..............................
........................................................................

 iter      E             dE          RMSdq      gap      omega  full diag
   1   -111.9920956 -0.111992E+03  0.883E-03    2.26       0.0  T
   2   -111.9920957 -0.131704E-06  0.500E-03    2.26       2.3  T
   3   -111.9920956  0.895482E-07  0.153E-03    2.26       7.6  T
   4   -111.9920957 -0.113062E-06  0.600E-04    2.26      19.4  T
   5   -111.9920958 -0.801387E-08  0.311E-04    2.26      37.4  T
     SCC iter.                  ...        0 min,  0.566 sec
     gradient                   ...        0 min,  0.110 sec
 * total energy  :  -110.2591569 Eh     change       -0.3979052E-04 Eh
   gradient norm :     0.0018155 Eh/α   predicted    -0.2384431E-04 ( -40.08%)
   displ. norm   :     0.2173050 α      lambda       -0.8942289E-04
   maximum displ.:     0.1266483 α      in ANC's #1, #2, #7, ...

........................................................................
.............................. CYCLE   45 ..............................
........................................................................

 iter      E             dE          RMSdq      gap      omega  full diag
   1   -111.9918497 -0.111992E+03  0.329E-02    2.26       0.0  T
   2   -111.9918512 -0.152234E-05  0.186E-02    2.26       1.0  T
   3   -111.9918503  0.908091E-06  0.529E-03    2.26       2.2  T
   4   -111.9918515 -0.121566E-05  0.175E-03    2.26       6.6  T
   5   -111.9918516 -0.625073E-07  0.828E-04    2.26      14.0  T
   6   -111.9918516 -0.266987E-07  0.246E-04    2.26      47.3  T
     SCC iter.                  ...        0 min,  0.774 sec
     gradient                   ...        0 min,  0.115 sec
 * total energy  :  -110.2592334 Eh     change       -0.7654946E-04 Eh
   gradient norm :     0.0040102 Eh/α   predicted    -0.4565042E-04 ( -40.36%)
   displ. norm   :     0.0987899 α      lambda       -0.4362256E-04
   maximum displ.:     0.0576823 α      in ANC's #1, #2, #5, ...

........................................................................
.............................. CYCLE   46 ..............................
........................................................................

 iter      E             dE          RMSdq      gap      omega  full diag
   1   -111.9915999 -0.111992E+03  0.160E-02    2.25       0.0  T
   2   -111.9916002 -0.338317E-06  0.831E-03    2.25       1.4  T
   3   -111.9916002  0.673209E-08  0.257E-03    2.25       4.5  T
   4   -111.9916002 -0.190363E-07  0.113E-03    2.25      10.2  T
   5   -111.9916002 -0.361983E-07  0.545E-04    2.25      21.3  T
   6   -111.9916002 -0.841035E-08  0.290E-04    2.25      40.1  T
     SCC iter.                  ...        0 min,  0.829 sec
     gradient                   ...        0 min,  0.117 sec
 * total energy  :  -110.2592686 Eh     change       -0.3517570E-04 Eh
   gradient norm :     0.0037411 Eh/α   predicted    -0.2202510E-04 ( -37.39%)
   displ. norm   :     0.2115083 α      lambda       -0.8958370E-04
   maximum displ.:     0.1209371 α      in ANC's #1, #2, #5, ...

........................................................................
.............................. CYCLE   47 ..............................
........................................................................

 iter      E             dE          RMSdq      gap      omega  full diag
   1   -111.9909476 -0.111991E+03  0.281E-02    2.25       0.0  T
   2   -111.9909481 -0.515596E-06  0.161E-02    2.25       1.0  T
   3   -111.9909478  0.325566E-06  0.315E-03    2.25       3.7  T
   4   -111.9909482 -0.386634E-06  0.144E-03    2.25       8.1  T
   5   -111.9909483 -0.672998E-07  0.735E-04    2.25      15.8  T
   6   -111.9909483 -0.234942E-07  0.344E-04    2.25      33.8  T
     SCC iter.                  ...        0 min,  0.824 sec
     gradient                   ...        0 min,  0.113 sec
 * total energy  :  -110.2593381 Eh     change       -0.6947126E-04 Eh
   gradient norm :     0.0022956 Eh/α   predicted    -0.4694903E-04 ( -32.42%)
   displ. norm   :     0.2503536 α      lambda       -0.7399440E-04
   maximum displ.:     0.1445155 α      in ANC's #1, #5, #2, ...

........................................................................
.............................. CYCLE   48 ..............................
........................................................................

 iter      E             dE          RMSdq      gap      omega  full diag
   1   -111.9905754 -0.111991E+03  0.319E-02    2.25       0.0  T
   2   -111.9905762 -0.726210E-06  0.183E-02    2.25       1.0  T
   3   -111.9905757  0.498542E-06  0.421E-03    2.25       2.8  T
   4   -111.9905763 -0.581732E-06  0.175E-03    2.25       6.7  T
   5   -111.9905764 -0.107648E-06  0.820E-04    2.25      14.2  T
   6   -111.9905764 -0.320283E-07  0.357E-04    2.25      32.6  T
     SCC iter.                  ...        0 min,  0.855 sec
     gradient                   ...        0 min,  0.112 sec
 * total energy  :  -110.2593949 Eh     change       -0.5681848E-04 Eh
   gradient norm :     0.0023874 Eh/α   predicted    -0.3931664E-04 ( -30.80%)
   displ. norm   :     0.2418058 α      lambda       -0.6078686E-04
   maximum displ.:     0.1414635 α      in ANC's #1, #5, #2, ...

........................................................................
.............................. CYCLE   49 ..............................
........................................................................

 iter      E             dE          RMSdq      gap      omega  full diag
   1   -111.9905581 -0.111991E+03  0.321E-02    2.24       0.0  T
   2   -111.9905589 -0.824783E-06  0.183E-02    2.25       1.0  T
   3   -111.9905584  0.541853E-06  0.437E-03    2.25       2.7  T
   4   -111.9905590 -0.683530E-06  0.178E-03    2.25       6.5  T
   5   -111.9905591 -0.678113E-07  0.929E-04    2.25      12.5  T
   6   -111.9905592 -0.482454E-07  0.345E-04    2.25      33.7  T
     SCC iter.                  ...        0 min,  0.721 sec
     gradient                   ...        0 min,  0.116 sec
 * total energy  :  -110.2594447 Eh     change       -0.4982947E-04 Eh
   gradient norm :     0.0028199 Eh/α   predicted    -0.3217452E-04 ( -35.43%)
   displ. norm   :     0.2805547 α      lambda       -0.7211380E-04
   maximum displ.:     0.1652379 α      in ANC's #1, #5, #2, ...

........................................................................
.............................. CYCLE   50 ..............................
........................................................................

 iter      E             dE          RMSdq      gap      omega  full diag
   1   -111.9910331 -0.111991E+03  0.380E-02    2.24       0.0  T
   2   -111.9910341 -0.997216E-06  0.220E-02    2.25       1.0  T
   3   -111.9910334  0.681929E-06  0.474E-03    2.25       2.5  T
   4   -111.9910342 -0.825717E-06  0.203E-03    2.25       5.7  T
   5   -111.9910344 -0.140292E-06  0.805E-04    2.25      14.4  T
   6   -111.9910344 -0.269283E-07  0.284E-04    2.25      40.9  T
     SCC iter.                  ...        0 min,  0.703 sec
     gradient                   ...        0 min,  0.114 sec
 * total energy  :  -110.2595043 Eh     change       -0.5961009E-04 Eh
   gradient norm :     0.0028835 Eh/α   predicted    -0.3889610E-04 ( -34.75%)
   displ. norm   :     0.3360670 α      lambda       -0.8294281E-04
   maximum displ.:     0.2008716 α      in ANC's #1, #5, #2, ...

........................................................................
.............................. CYCLE   51 ..............................
........................................................................

 iter      E             dE          RMSdq      gap      omega  full diag
   1   -111.9914744 -0.111991E+03  0.474E-02    2.25       0.0  T
   2   -111.9914759 -0.141765E-05  0.270E-02    2.25       1.0  T
   3   -111.9914749  0.989988E-06  0.563E-03    2.25       2.1  T
   4   -111.9914761 -0.123688E-05  0.252E-03    2.25       4.6  T
   5   -111.9914763 -0.197173E-06  0.873E-04    2.25      13.3  T
   6   -111.9914763 -0.329149E-07  0.262E-04    2.25      44.3  T
     SCC iter.                  ...        0 min,  0.624 sec
     gradient                   ...        0 min,  0.115 sec
 * total energy  :  -110.2595710 Eh     change       -0.6665450E-04 Eh
   gradient norm :     0.0027467 Eh/α   predicted    -0.4615572E-04 ( -30.75%)
   displ. norm   :     0.3258141 α      lambda       -0.7277672E-04
   maximum displ.:     0.1990130 α      in ANC's #1, #5, #2, ...

........................................................................
.............................. CYCLE   52 ..............................
........................................................................

 iter      E             dE          RMSdq      gap      omega  full diag
   1   -111.9919538 -0.111992E+03  0.458E-02    2.25       0.0  T
   2   -111.9919548 -0.105813E-05  0.266E-02    2.25       1.0  T
   3   -111.9919537  0.106753E-05  0.502E-03    2.25       2.3  T
   4   -111.9919550 -0.127425E-05  0.221E-03    2.25       5.3  T
   5   -111.9919552 -0.175868E-06  0.694E-04    2.25      16.7  T
   6   -111.9919552 -0.149009E-07  0.255E-04    2.25      45.6  T
     SCC iter.                  ...        0 min,  0.701 sec
     gradient                   ...        0 min,  0.113 sec
 * total energy  :  -110.2596291 Eh     change       -0.5806443E-04 Eh
   gradient norm :     0.0023871 Eh/α   predicted    -0.4025166E-04 ( -30.68%)
   displ. norm   :     0.2687856 α      lambda       -0.5509935E-04
   maximum displ.:     0.1700656 α      in ANC's #1, #5, #2, ...

........................................................................
.............................. CYCLE   53 ..............................
........................................................................

 iter      E             dE          RMSdq      gap      omega  full diag
   1   -111.9924151 -0.111992E+03  0.370E-02    2.25       0.0  T
   2   -111.9924158 -0.651613E-06  0.216E-02    2.25       1.0  T
   3   -111.9924147  0.103055E-05  0.434E-03    2.25       2.7  T
   4   -111.9924160 -0.123561E-05  0.156E-03    2.25       7.4  T
   5   -111.9924160 -0.650550E-07  0.633E-04    2.25      18.4  T
   6   -111.9924161 -0.172026E-07  0.308E-04    2.25      37.7  T
     SCC iter.                  ...        0 min,  0.777 sec
     gradient                   ...        0 min,  0.113 sec
 * total energy  :  -110.2596726 Eh     change       -0.4356945E-04 Eh
   gradient norm :     0.0018842 Eh/α   predicted    -0.2954457E-04 ( -32.19%)
   displ. norm   :     0.2713094 α      lambda       -0.3391752E-04
   maximum displ.:     0.1806893 α      in ANC's #1, #5, #3, ...

........................................................................
.............................. CYCLE   54 ..............................
........................................................................

 iter      E             dE          RMSdq      gap      omega  full diag
   1   -111.9927219 -0.111993E+03  0.364E-02    2.26       0.0  T
   2   -111.9927227 -0.850013E-06  0.212E-02    2.26       1.0  T
   3   -111.9927212  0.149396E-05  0.544E-03    2.26       2.1  T
   4   -111.9927230 -0.180068E-05  0.157E-03    2.25       7.4  T
   5   -111.9927231 -0.431872E-07  0.735E-04    2.26      15.8  T
   6   -111.9927231 -0.251477E-07  0.358E-04    2.26      32.5  T
     SCC iter.                  ...        0 min,  0.745 sec
     gradient                   ...        0 min,  0.113 sec
 * total energy  :  -110.2597086 Eh     change       -0.3592957E-04 Eh
   gradient norm :     0.0015617 Eh/α   predicted    -0.1751525E-04 ( -51.25%)
   displ. norm   :     0.1049479 α      lambda       -0.1356001E-04
   maximum displ.:     0.0796242 α      in ANC's #1, #3, #5, ...

........................................................................
.............................. CYCLE   55 ..............................
........................................................................

 iter      E             dE          RMSdq      gap      omega  full diag
   1   -111.9924843 -0.111992E+03  0.142E-02    2.25       0.0  T
   2   -111.9924845 -0.140437E-06  0.794E-03    2.25       1.5  T
   3   -111.9924843  0.206155E-06  0.220E-03    2.25       5.3  T
   4   -111.9924845 -0.249768E-06  0.799E-04    2.25      14.5  T
   5   -111.9924845 -0.107483E-07  0.326E-04    2.25      35.7  T
     SCC iter.                  ...        0 min,  0.577 sec
     gradient                   ...        0 min,  0.116 sec
 * total energy  :  -110.2597259 Eh     change       -0.1739251E-04 Eh
   gradient norm :     0.0011772 Eh/α   predicted    -0.6816421E-05 ( -60.81%)
   displ. norm   :     0.0796171 α      lambda       -0.1448973E-04
   maximum displ.:     0.0559421 α      in ANC's #1, #10, #3, ...

........................................................................
.............................. CYCLE   56 ..............................
........................................................................

 iter      E             dE          RMSdq      gap      omega  full diag
   1   -111.9928299 -0.111993E+03  0.168E-02    2.25       0.0  T
   2   -111.9928302 -0.281401E-06  0.860E-03    2.25       1.4  T
   3   -111.9928301  0.820316E-07  0.242E-03    2.25       4.8  T
   4   -111.9928302 -0.113598E-06  0.118E-03    2.25       9.9  T
   5   -111.9928302 -0.420404E-07  0.259E-04    2.25      44.9  T
   6   -111.9928303 -0.159564E-08  0.128E-04    2.25      90.8  T
     SCC iter.                  ...        0 min,  0.754 sec
     gradient                   ...        0 min,  0.124 sec
 * total energy  :  -110.2597438 Eh     change       -0.1782482E-04 Eh
   gradient norm :     0.0010312 Eh/α   predicted    -0.7270062E-05 ( -59.21%)
   displ. norm   :     0.1046630 α      lambda       -0.1630754E-04
   maximum displ.:     0.0681918 α      in ANC's #1, #8, #3, ...

........................................................................
.............................. CYCLE   57 ..............................
........................................................................

 iter      E             dE          RMSdq      gap      omega  full diag
   1   -111.9921287 -0.111992E+03  0.215E-02    2.25       0.0  T
   2   -111.9921290 -0.314744E-06  0.119E-02    2.25       1.0  T
   3   -111.9921289  0.841758E-07  0.242E-03    2.25       4.8  T
   4   -111.9921290 -0.872133E-07  0.126E-03    2.25       9.2  T
   5   -111.9921291 -0.756378E-07  0.366E-04    2.25      31.7  T
   6   -111.9921291 -0.504455E-08  0.149E-04    2.25      78.0  T
     SCC iter.                  ...        0 min,  0.655 sec
     gradient                   ...        0 min,  0.121 sec
 * total energy  :  -110.2597625 Eh     change       -0.1874800E-04 Eh
   gradient norm :     0.0011323 Eh/α   predicted    -0.8194788E-05 ( -56.29%)
   displ. norm   :     0.1085156 α      lambda       -0.1220386E-04
   maximum displ.:     0.0645955 α      in ANC's #1, #8, #2, ...

........................................................................
.............................. CYCLE   58 ..............................
........................................................................

 iter      E             dE          RMSdq      gap      omega  full diag
   1   -111.9924040 -0.111992E+03  0.210E-02    2.25       0.0  T
   2   -111.9924043 -0.305163E-06  0.113E-02    2.25       1.0  T
   3   -111.9924042  0.721914E-07  0.241E-03    2.25       4.8  T
   4   -111.9924042  0.235943E-07  0.157E-03    2.25       7.4  T
[...]
        99        2.0000           -0.4971573             -13.5283
       100        2.0000           -0.4888840             -13.3032
       101        2.0000           -0.4820632             -13.1176
       102        2.0000           -0.4722546             -12.8507 (HOMO)
       103                         -0.3893364             -10.5944 (LUMO)
       104                         -0.3735416             -10.1646
       105                         -0.3623914              -9.8612
       106                         -0.3541642              -9.6373
       107                         -0.3479888              -9.4693
       108                         -0.3394173              -9.2360
       109                         -0.3325243              -9.0484
       110                         -0.3277472              -8.9185
       111                         -0.2998814              -8.1602
       112                         -0.2979752              -8.1083
       113                         -0.2858214              -7.7776
       ...                                ...                  ...
       209                          0.9995144              27.1982
      -------------------------------------------------------------
                  HL-Gap            0.0829182 Eh            2.2563 eV
             Fermi-level           -0.4307955 Eh          -11.7225 eV

     #   Z          covCN         q      C6AA      α(0)
     1   6 C        3.756    -0.034    21.232     6.570
     2   7 N        2.684    -0.127    23.762     7.240
     3   6 C        3.334     0.052    24.508     7.845
     4   6 C        2.913    -0.046    29.148     8.853
     5   6 C        2.920    -0.034    28.841     8.807
     6   6 C        2.986     0.013    27.710     8.635
     7   6 C        2.919    -0.030    28.757     8.794
     8   6 C        2.915    -0.021    28.521     8.758
     9   6 C        2.917    -0.021    28.540     8.760
    10   6 C        2.917    -0.032    28.791     8.799
    11   6 C        2.987     0.011    27.759     8.643
    12   6 C        2.981    -0.007    28.189     8.709
    13   6 C        2.978    -0.013    28.333     8.731
    14   6 C        3.063     0.054    26.723     8.477
    15   6 C        2.916    -0.051    29.261     8.870
    16   6 C        2.918    -0.034    28.840     8.806
    17   6 C        2.986     0.011    27.763     8.643
    18   6 C        2.919    -0.031    28.780     8.797
    19   6 C        2.915    -0.023    28.570     8.765
    20   6 C        2.917    -0.023    28.571     8.765
    21   6 C        2.917    -0.034    28.835     8.806
    22   6 C        2.988     0.011    27.756     8.642
    23   7 N        2.683    -0.115    23.511     7.201
    24   6 C        3.908    -0.041    21.255     6.553
    25  15 P        4.698     0.277   148.500    21.890
    26  16 S        1.899    -0.062   143.617    20.170
    27  16 S        2.087    -0.041   142.758    20.110
    28   6 C        2.972     0.030    27.319     8.573
    29   6 C        2.966    -0.032    28.804     8.803
    30   6 C        2.919    -0.045    29.107     8.847
    31   6 C        2.786     0.180    24.128     8.046
    32   9 F        0.788    -0.197    11.204     3.954
    33   6 C        2.919    -0.044    29.092     8.845
    34   6 C        2.957    -0.030    28.741     8.793
    35   7 N        2.680    -0.130    23.830     7.250
    36   6 C        3.834    -0.048    21.407     6.583
    37   6 C        3.936     0.085    19.116     6.213
    38   6 C        3.759    -0.126    22.960     6.831
    39   6 C        3.773    -0.125    22.928     6.823
    40   6 C        3.761    -0.125    22.943     6.828
    41   1 H        0.925     0.059     2.214     2.327
    42   1 H        0.924     0.062     2.175     2.306
    43   1 H        0.924     0.060     2.194     2.316
    44   1 H        0.926     0.038     2.473     2.459
    45   1 H        0.926     0.054     2.268     2.355
    46   1 H        0.926     0.050     2.319     2.381
    47   1 H        0.926     0.054     2.271     2.357
    48   1 H        0.926     0.051     2.307     2.375
    49   1 H        0.926     0.041     2.434     2.440
    50   1 H        0.926     0.050     2.326     2.385
    51   1 H        0.926     0.054     2.276     2.359
    52   1 H        0.926     0.049     2.337     2.390
    53   1 H        0.926     0.051     2.301     2.372
    54   1 H        0.926     0.048     2.342     2.393
    55   1 H        0.926     0.037     2.495     2.470
    56   1 H        0.925     0.072     2.062     2.246
    57   1 H        0.925     0.075     2.027     2.227
    58   1 H        0.924     0.065     2.139     2.287
    59   1 H        0.926     0.061     2.188     2.313
    60   1 H        0.926     0.076     2.020     2.222
    61   1 H        0.926     0.083     1.951     2.184
    62   1 H        0.926     0.066     2.126     2.280
    63   1 H        0.924     0.062     2.180     2.309
    64   1 H        0.925     0.071     2.075     2.253
    65   1 H        0.925     0.070     2.088     2.260
    66   1 H        0.925     0.068     2.112     2.272
    67   1 H        0.925     0.051     2.308     2.376
    68   1 H        0.925     0.050     2.315     2.379
    69   1 H        0.925     0.055     2.254     2.348
    70   1 H        0.925     0.061     2.193     2.316
    71   1 H        0.925     0.074     2.047     2.237
    72   1 H        0.925     0.068     2.111     2.272
    73   1 H        0.925     0.052     2.296     2.370
    74   1 H        0.925     0.059     2.213     2.327

 Mol. C6AA /au·bohr⁶  :      75402.437327
 Mol. C8AA /au·bohr⁸  :    2045865.744416
 Mol. α(0) /au        :        439.195080


Wiberg/Mayer (AO) data.
largest (>0.10) Wiberg bond orders for each atom

 ---------------------------------------------------------------------------
     #   Z sym  total        # sym  WBO       # sym  WBO       # sym  WBO
 ---------------------------------------------------------------------------
     1   6 C    3.961 --    43 H    0.977     2 N    0.977    42 H    0.975
                            41 H    0.968
     2   7 N    3.399 --    25 P    1.217     1 C    0.977     3 C    0.947
     3   6 C    3.950 --    12 C    1.452     4 C    1.288     2 N    0.947
     4   6 C    3.988 --     5 C    1.557     3 C    1.288    44 H    0.961
     5   6 C    3.985 --     4 C    1.557     6 C    1.273    45 H    0.966
                            12 C    0.105
     6   6 C    3.988 --     7 C    1.283     5 C    1.273    11 C    1.252
     7   6 C    3.988 --     8 C    1.553     6 C    1.283    46 H    0.967
                            10 C    0.117
     8   6 C    3.985 --     7 C    1.553     9 C    1.324    47 H    0.969
     9   6 C    3.989 --    10 C    1.551     8 C    1.324    48 H    0.969
    10   6 C    3.988 --     9 C    1.551    11 C    1.286    49 H    0.965
                             7 C    0.117
    11   6 C    3.987 --    10 C    1.286     6 C    1.252    12 C    1.234
    12   6 C    3.987 --     3 C    1.452    11 C    1.234    13 C    1.029
                             5 C    0.105
    13   6 C    3.985 --    14 C    1.447    22 C    1.235    12 C    1.029
                            16 C    0.105
    14   6 C    3.949 --    13 C    1.447    15 C    1.283    23 N    0.994
    15   6 C    3.987 --    16 C    1.555    14 C    1.283    50 H    0.962
    16   6 C    3.984 --    15 C    1.555    17 C    1.272    51 H    0.966
                            13 C    0.105
    17   6 C    3.988 --    18 C    1.281    16 C    1.272    22 C    1.253
    18   6 C    3.988 --    19 C    1.554    17 C    1.281    52 H    0.967
                            21 C    0.117
    19   6 C    3.985 --    18 C    1.554    20 C    1.323    53 H    0.969
    20   6 C    3.990 --    21 C    1.553    19 C    1.323    54 H    0.970
    21   6 C    3.989 --    20 C    1.553    22 C    1.284    55 H    0.965
                            18 C    0.117
    22   6 C    3.987 --    21 C    1.284    17 C    1.253    13 C    1.235
    23   7 N    3.443 --    25 P    1.213    14 C    0.994    24 C    0.969
    24   6 C    3.959 --    57 H    0.977    58 H    0.970    23 N    0.969
                            56 H    0.962
    25  15 P    5.143 --    35 N    1.253     2 N    1.217    23 N    1.213
                            26 S    0.966
    26  16 S    2.453 --    27 S    1.154    25 P    0.966
    27  16 S    2.349 --    26 S    1.154    28 C    0.984
    28   6 C    3.958 --    29 C    1.404    34 C    1.402    27 S    0.984
    29   6 C    3.988 --    30 C    1.445    28 C    1.404    59 H    0.961
                            33 C    0.106
    30   6 C    3.988 --    29 C    1.445    31 C    1.388    60 H    0.964
                            34 C    0.107
    31   6 C    3.887 --    30 C    1.388    33 C    1.383    32 F    0.985
    32   9 F    1.125 --    31 C    0.985
    33   6 C    3.987 --    34 C    1.450    31 C    1.383    61 H    0.962
                            29 C    0.106
    34   6 C    3.988 --    33 C    1.450    28 C    1.402    62 H    0.966
                            30 C    0.107
    35   7 N    3.406 --    25 P    1.253    36 C    0.970    37 C    0.922
    36   6 C    3.956 --    63 H    0.976    64 H    0.973    35 N    0.970
                            65 H    0.964
    37   6 C    3.956 --    39 C    0.998    38 C    0.995    40 C    0.994
                            35 N    0.922
    38   6 C    3.988 --    37 C    0.995    67 H    0.982    66 H    0.979
                            68 H    0.973
    39   6 C    3.991 --    37 C    0.998    71 H    0.976    69 H    0.974
                            70 H    0.942
    40   6 C    3.987 --    37 C    0.994    73 H    0.982    74 H    0.982
                            72 H    0.978
    41   1 H    0.996 --     1 C    0.968
    42   1 H    0.996 --     1 C    0.975
    43   1 H    0.996 --     1 C    0.977
    44   1 H    0.997 --     4 C    0.961
    45   1 H    0.996 --     5 C    0.966
    46   1 H    0.997 --     7 C    0.967
    47   1 H    0.996 --     8 C    0.969
    48   1 H    0.997 --     9 C    0.969
    49   1 H    0.998 --    10 C    0.965
    50   1 H    0.997 --    15 C    0.962
    51   1 H    0.996 --    16 C    0.966
    52   1 H    0.997 --    18 C    0.967
    53   1 H    0.996 --    19 C    0.969
    54   1 H    0.997 --    20 C    0.970
    55   1 H    0.998 --    21 C    0.965
    56   1 H    0.994 --    24 C    0.962
    57   1 H    0.994 --    24 C    0.977
    58   1 H    0.995 --    24 C    0.970
    59   1 H    0.996 --    29 C    0.961
    60   1 H    0.994 --    30 C    0.964
    61   1 H    0.993 --    33 C    0.962
    62   1 H    0.996 --    34 C    0.966
    63   1 H    0.996 --    36 C    0.976
    64   1 H    0.991 --    36 C    0.973
    65   1 H    0.995 --    36 C    0.964
    66   1 H    0.995 --    38 C    0.979
    67   1 H    0.997 --    38 C    0.982
    68   1 H    0.997 --    38 C    0.973
    69   1 H    0.997 --    39 C    0.974
    70   1 H    0.996 --    39 C    0.942
    71   1 H    0.994 --    39 C    0.976
    72   1 H    0.994 --    40 C    0.978
    73   1 H    0.997 --    40 C    0.982
    74   1 H    0.996 --    40 C    0.982
 ---------------------------------------------------------------------------

Topologies differ in total number of bonds
Writing topology from bond orders to xtbtopo.mol

molecular dipole:
                 x           y           z       tot (Debye)
 q only:       -0.542       1.669      -0.566
   full:       -0.599       1.417      -0.512       4.122
molecular quadrupole (traceless):
                xx          xy          yy          xz          yz          zz
 q only:       10.252     -11.594       6.138       2.510       7.944     -16.390
  q+dip:       11.306     -12.509       3.898       2.408      12.992     -15.204
   full:        9.605      -9.951       6.416       2.010      10.624     -16.021

           -------------------------------------------------
          |                Geometry Summary                 |
           -------------------------------------------------

      molecular mass/u    :      586.7461198
   center of mass at/Å    :       -0.1417721      -0.4462286      -0.1305403
  moments of inertia/u·Å² :        0.5078202E+04   0.5487618E+04   0.8073303E+04
rotational constants/cm⁻¹ :        0.3319606E-02   0.3071940E-02   0.2088071E-02

 * 77 selected distances

     #   Z          #   Z                                           value/Å
     1   6 C        2   7 N                                       1.4500949
     2   7 N        3   6 C                                       1.4374868
     3   6 C        4   6 C                                       1.4043700
     4   6 C        5   6 C                                       1.3649213
     5   6 C        6   6 C                                       1.4115573
     6   6 C        7   6 C                                       1.4100995
     7   6 C        8   6 C                                       1.3669420
     8   6 C        9   6 C                                       1.4028457
     9   6 C       10   6 C                                       1.3675799
     6   6 C       11   6 C                                       1.4209931
    10   6 C       11   6 C                                       1.4108405
     3   6 C       12   6 C                                       1.3762104
    11   6 C       12   6 C                                       1.4234955
    13   6 C       14   6 C                                       1.3809753
    14   6 C       15   6 C                                       1.4086170
    15   6 C       16   6 C                                       1.3648876
    16   6 C       17   6 C                                       1.4101206
    17   6 C       18   6 C                                       1.4100260
    18   6 C       19   6 C                                       1.3665795
    19   6 C       20   6 C                                       1.4030168
    20   6 C       21   6 C                                       1.3675292
    13   6 C       22   6 C                                       1.4243532
    17   6 C       22   6 C                                       1.4194726
    21   6 C       22   6 C                                       1.4116484
    14   6 C       23   7 N                                       1.4234070
    23   7 N       24   6 C                                       1.4604991
     2   7 N       25  15 P                                       1.6534504
    23   7 N       25  15 P                                       1.6579342
    25  15 P       26  16 S                                       2.1462110 (max)
    26  16 S       27  16 S                                       2.0477421
    28   6 C       29   6 C                                       1.3867599
    29   6 C       30   6 C                                       1.3823274
    30   6 C       31   6 C                                       1.3859526
    31   6 C       32   9 F                                       1.3377823
    31   6 C       33   6 C                                       1.3866145
    28   6 C       34   6 C                                       1.3874843
    33   6 C       34   6 C                                       1.3817118
    25  15 P       35   7 N                                       1.6554216
    35   7 N       36   6 C                                       1.4599701
    35   7 N       37   6 C                                       1.4829397
    37   6 C       38   6 C                                       1.5287208
    37   6 C       39   6 C                                       1.5262510
    37   6 C       40   6 C                                       1.5303832
     1   6 C       41   1 H                                       1.0887334
     1   6 C       42   1 H                                       1.0910152
     1   6 C       43   1 H                                       1.0918148
     4   6 C       44   1 H                                       1.0795309
     5   6 C       45   1 H                                       1.0794725
     7   6 C       46   1 H                                       1.0797366
     8   6 C       47   1 H                                       1.0789179
     9   6 C       48   1 H                                       1.0790904
    10   6 C       49   1 H                                       1.0791273
    15   6 C       50   1 H                                       1.0771169 (min)
    16   6 C       51   1 H                                       1.0793406
    18   6 C       52   1 H                                       1.0797676
    19   6 C       53   1 H                                       1.0789186
    20   6 C       54   1 H                                       1.0792066
    21   6 C       55   1 H                                       1.0791723
    24   6 C       56   1 H                                       1.0898298
    24   6 C       57   1 H                                       1.0895834
    24   6 C       58   1 H                                       1.0928028
    29   6 C       59   1 H                                       1.0780403
    30   6 C       60   1 H                                       1.0781672
    33   6 C       61   1 H                                       1.0779604
    34   6 C       62   1 H                                       1.0797570
    36   6 C       63   1 H                                       1.0911563
    36   6 C       64   1 H                                       1.0893482
    36   6 C       65   1 H                                       1.0869557
    38   6 C       66   1 H                                       1.0859140
    38   6 C       67   1 H                                       1.0873460
    38   6 C       68   1 H                                       1.0885149
    39   6 C       69   1 H                                       1.0870488
    39   6 C       70   1 H                                       1.0885747
    39   6 C       71   1 H                                       1.0868637
    40   6 C       72   1 H                                       1.0863957
    40   6 C       73   1 H                                       1.0871407
    40   6 C       74   1 H                                       1.0853173

 * 7 distinct bonds (by element types)

   Z      Z             #   av. dist./Å        max./Å        min./Å
   1 H    6 C          34     1.0840494     1.0928028     1.0771169
   6 C    6 C          31     1.4072028     1.5303832     1.3648876
   6 C    7 N           6     1.4523996     1.4829397     1.4234070
   6 C    9 F           1     1.3377823     1.3377823     1.3377823
   7 N   15 P           3     1.6556021     1.6579342     1.6534504
  15 P   16 S           1     2.1462110     2.1462110     2.1462110
  16 S   16 S           1     2.0477421     2.0477421     2.0477421


optimized geometry written to: xtbopt.xyz


           -------------------------------------------------
          | TOTAL ENERGY             -110.259931079139 Eh   |
          | GRADIENT NORM               0.000039666431 Eh/α |
          | HOMO-LUMO GAP               2.256318560127 eV   |
           -------------------------------------------------

------------------------------------------------------------------------
 * finished run on 2024/12/16 at 18:59:04.376     
------------------------------------------------------------------------
 total:
 * wall-time:     0 d,  0 h,  1 min, 33.278 sec
 *  cpu-time:     0 d,  0 h, 12 min, 18.284 sec
 * ratio c/w:     7.915 speedup
 SCF:
 * wall-time:     0 d,  0 h,  0 min,  2.553 sec
 *  cpu-time:     0 d,  0 h,  0 min, 20.293 sec
 * ratio c/w:     7.950 speedup
 ANC optimizer:
 * wall-time:     0 d,  0 h,  1 min, 30.569 sec
 *  cpu-time:     0 d,  0 h, 11 min, 56.791 sec
 * ratio c/w:     7.914 speedup

