74
 energy: -110.227631303185 gnorm: 0.132098067364 xtb: 6.7.1 (edcfbbe)
C           -1.84124300000000       -0.09675200000000        1.60369300000000
N           -0.77371300000000        0.14339400000000        0.63809500000000
C            0.50134000000000        0.40981200000000        1.22014000000000
C            0.60284900000000        1.05792500000000        2.46664300000000
C            1.83281300000000        1.36044000000000        3.03902800000000
C            3.01311100000000        1.06452300000000        2.36769900000000
C            4.24219700000000        1.43299900000000        2.94315500000000
C            5.44399700000000        1.19972400000000        2.28165000000000
C            5.42684500000000        0.60764000000000        1.02982400000000
C            4.20849700000000        0.23308500000000        0.45540100000000
C            2.96072000000000        0.41523700000000        1.10915900000000
C            1.68723300000000        0.01790800000000        0.54130000000000
C            1.60189600000000       -0.77879100000000       -0.64901700000000
C            0.89168900000000       -0.29315600000000       -1.78295300000000
C            1.00112100000000       -0.98510900000000       -3.00502500000000
C            1.71841800000000       -2.17104300000000       -3.11792500000000
C            2.33066800000000       -2.73175400000000       -2.00368200000000
C            2.98837000000000       -3.96823400000000       -2.12793900000000
C            3.57512700000000       -4.58373700000000       -1.02639000000000
C            3.50016800000000       -3.97265600000000        0.21434100000000
C            2.85378100000000       -2.73995900000000        0.34306700000000
C            2.26986900000000       -2.05939200000000       -0.75842100000000
N            0.10256500000000        0.89187800000000       -1.68256800000000
C           -0.02115800000000        1.65851600000000       -2.92060900000000
P           -1.26066200000000        0.92562300000000       -0.73621000000000
S           -2.85957100000000       -0.04447800000000       -1.71394500000000
S           -2.17127200000000       -1.93581800000000       -2.10090700000000
C           -2.52115200000000       -2.82946300000000       -0.60326100000000
C           -1.46313600000000       -3.35843900000000        0.14590600000000
C           -1.71599300000000       -4.07306300000000        1.31806500000000
C           -3.02823700000000       -4.26564400000000        1.73129500000000
F           -3.27280300000000       -4.94882400000000        2.85688600000000
C           -4.09227900000000       -3.76027100000000        0.99308400000000
C           -3.83905900000000       -3.04440000000000       -0.17905700000000
N           -1.50999700000000        2.50162000000000       -0.28597700000000
C           -0.33429900000000        3.34264600000000       -0.03635400000000
C           -2.78250300000000        3.27011200000000       -0.34246200000000
C           -3.16690700000000        3.53700400000000       -1.80967100000000
C           -3.92186800000000        2.53186600000000        0.38886400000000
C           -2.72332600000000        4.66394000000000        0.35236500000000
H           -2.72998900000000       -0.51121300000000        1.12457000000000
H           -2.15587300000000        0.82323700000000        2.10432800000000
H           -1.53222300000000       -0.82607700000000        2.36175700000000
H           -0.28275100000000        1.37491000000000        3.00780000000000
H            1.85065300000000        1.86651400000000        4.00138500000000
H            4.27063600000000        1.92036600000000        3.91561900000000
H            6.38546100000000        1.49437700000000        2.73619200000000
H            6.35407200000000        0.43706900000000        0.48958500000000
H            4.24529600000000       -0.20354300000000       -0.54121200000000
H            0.48697600000000       -0.63649700000000       -3.89551900000000
H            1.75110800000000       -2.67125000000000       -4.08305000000000
H            3.03770900000000       -4.47103900000000       -3.09179800000000
H            4.07560200000000       -5.54144600000000       -1.13688000000000
H            3.93813700000000       -4.44776500000000        1.08797900000000
H            2.79840300000000       -2.31108600000000        1.34241500000000
H           -0.36361600000000        2.67711800000000       -2.72231200000000
H            0.94750200000000        1.76352600000000       -3.42358400000000
H           -0.73923600000000        1.20669700000000       -3.61279000000000
H           -0.43431000000000       -3.20589800000000       -0.17179400000000
H           -0.89708400000000       -4.47558900000000        1.90514700000000
H           -5.10959100000000       -3.92869900000000        1.33092800000000
H           -4.67350900000000       -2.65585600000000       -0.75777800000000
H           -0.25216500000000        4.14410600000000       -0.77786600000000
H           -0.35553300000000        3.76930500000000        0.97111800000000
H            0.60669900000000        2.79184000000000       -0.10077000000000
H           -4.09911000000000        4.11115100000000       -1.87312400000000
H           -2.39206700000000        4.11922100000000       -2.32186100000000
H           -3.32263400000000        2.62221600000000       -2.38294400000000
H           -3.68286000000000        2.39004100000000        1.44826400000000
H           -4.15819700000000        1.55741300000000       -0.03181800000000
H           -4.85265000000000        3.11145900000000        0.34681900000000
H           -3.70281600000000        5.15808200000000        0.32358800000000
H           -2.44349600000000        4.57434900000000        1.40836600000000
H           -2.02264000000000        5.34805500000000       -0.13804100000000
74
 energy: -110.246068790881 gnorm: 0.056463406755 xtb: 6.7.1 (edcfbbe)
C           -1.83961705970527       -0.10801998607195        1.60709142498661
N           -0.75685908435272        0.12339966995813        0.65430999444166
C            0.52298012884766        0.40900293407755        1.22487729626169
C            0.60402052868560        1.07018635611153        2.46096006758592
C            1.81578583590922        1.36217084094838        3.03534871366764
C            3.01150327083767        1.06339525699595        2.36996874030923
C            4.24553389356701        1.43122963563793        2.93872729422445
C            5.42691430232111        1.19516177961781        2.27737802037152
C            5.39694729842412        0.59818406304093        1.01784413542393
C            4.19736515972915        0.21741690450863        0.44798170412953
C            2.96233841137940        0.40598137292206        1.10951599132690
C            1.69065658457275        0.01539389389586        0.55842160158668
C            1.60879386047849       -0.78243788455024       -0.66030597942435
C            0.89754417687419       -0.31097802115826       -1.77456896545080
C            0.98015425013909       -0.99760784074125       -2.99800379736805
C            1.70032365168620       -2.16011467692759       -3.12034900716581
C            2.32793162158270       -2.73111339535144       -2.00608698968991
C            2.98885775773170       -3.96870157966999       -2.12273313150754
C            3.56711452589109       -4.56703458744399       -1.02866007451067
C            3.48498062724667       -3.94240931186699        0.21527938495337
C            2.85420296944184       -2.72052149576539        0.34837987514852
C            2.27442156687051       -2.05484773149550       -0.75627190142962
N            0.13171318064801        0.89742078292161       -1.68103273887490
C           -0.01620012310471        1.66072605171189       -2.91991690499540
P           -1.21994798471813        0.95122041168615       -0.71169070858330
S           -2.88208276328497       -0.02636761597593       -1.63655093103278
S           -2.14852015887925       -1.90528968951694       -2.06340455646099
C           -2.51926697322519       -2.82716928425258       -0.58380453090344
C           -1.46138558691207       -3.34898302574978        0.15397245089516
C           -1.71270094520426       -4.06832642418615        1.31052817616447
C           -3.02488280247106       -4.25936297430657        1.71643008576525
F           -3.26982887993277       -4.93925031099292        2.84179344601008
C           -4.08939286256488       -3.75408070936377        0.98401793239094
C           -3.83395478074658       -3.04226322885780       -0.17650340467520
N           -1.51865047846625        2.53167997758769       -0.27992923706101
C           -0.32799787571178        3.34550239414035       -0.04193823688553
C           -2.80441237415491        3.28263373928500       -0.35378649162519
C           -3.17389430461551        3.53263476944897       -1.81872305736651
C           -3.91624339746045        2.51803222475330        0.37692667629003
C           -2.70680216929732        4.65451510180774        0.35042118870537
H           -2.71649065986634       -0.51892298693669        1.10119069237015
H           -2.15399729350084        0.81014950678313        2.11117188869072
H           -1.51840642234284       -0.83175771110838        2.35748779937562
H           -0.28796905057658        1.36361993777502        2.99488879131878
H            1.83849081627906        1.85530431506618        3.99730689693279
H            4.26479461569657        1.91684443398074        3.90526952231668
H            6.36780839793027        1.48562683976651        2.72627099966692
H            6.32047097094024        0.43254134932821        0.47952557094855
H            4.22305353974278       -0.22126631097446       -0.54087668278945
H            0.47953217681200       -0.62591813365393       -3.88043711623567
H            1.74993343023068       -2.65156538032517       -4.08209737077414
H            3.03270128306226       -4.46245604136104       -3.08427580441145
H            4.06833315637617       -5.52049504214081       -1.13316818301233
H            3.91824675433345       -4.41813172925654        1.08496346663004
H            2.79734479666614       -2.28330938015983        1.33685550872885
H           -0.36148918054831        2.67206938850585       -2.69767608620115
H            0.95238160989400        1.74549973884199       -3.41460601467607
H           -0.73316491233339        1.21014586066506       -3.61378372894040
H           -0.44081092621424       -3.20013007831795       -0.17303380496398
H           -0.90006633911549       -4.47490364779198        1.89460453216624
H           -5.10221513620036       -3.92473188721437        1.31941948075428
H           -4.65958258237945       -2.65199437700629       -0.75662189936180
H           -0.25005859482714        4.15102546943548       -0.77478765922995
H           -0.36102954580326        3.76925857288796        0.96187504964834
H            0.58707507248564        2.75190358678654       -0.10807793819786
H           -4.09922044869077        4.10378971810003       -1.87550080715081
H           -2.39504079513079        4.11332504190664       -2.31527673073249
H           -3.31763524164884        2.60214784483053       -2.36795541032907
H           -3.66830868977262        2.38853307038998        1.43122937350781
H           -4.12687819383445        1.54307083542261       -0.05846941786757
H           -4.83735089753517        3.09946929652936        0.33248116201744
H           -3.68937516232156        5.12423651600747        0.31342659306759
H           -2.43479392448668        4.55998374708581        1.40084433971867
H           -2.01372562137630        5.33603224933987       -0.13807456861325
74
 energy: -110.251869337725 gnorm: 0.012800137192 xtb: 6.7.1 (edcfbbe)
C           -1.83641571527880       -0.13215295842721        1.61399759636756
N           -0.74729415606760        0.09196638185959        0.66648767937598
C            0.53469363619677        0.40242891732577        1.22918623890807
C            0.59959082856018        1.07349281547351        2.46168979182714
C            1.80117704237779        1.36357313381428        3.03320958265062
C            3.00508790607782        1.06167866881743        2.36926800035577
C            4.24529226285912        1.42639037961701        2.93031437253151
C            5.41129147876108        1.18491419907921        2.26424004321872
C            5.36899207767331        0.58074575327377        0.99986644198850
C            4.18051015641642        0.19821111368899        0.43731968664520
C            2.95561921863901        0.40017272413858        1.10861391491806
C            1.68579668515844        0.01449391769552        0.57148036025853
C            1.60474760663885       -0.78288032557053       -0.66931445840195
C            0.89788550817538       -0.32051539068092       -1.76548793471636
C            0.96244318850245       -0.99942688858960       -2.99507126647112
C            1.68114134977869       -2.14941471820399       -3.12181812388496
C            2.31939894854865       -2.72578271760485       -2.00721036107695
C            2.98601510739733       -3.96301493249329       -2.11556835937934
C            3.55930612655336       -4.54582517654273       -1.02279411048078
C            3.47358435665523       -3.90781702605244        0.22278074516521
C            2.85206352164827       -2.69476224200606        0.35487439633462
C            2.26949641327582       -2.04734823954279       -0.75619444230207
N            0.14843430513762        0.90307439776557       -1.67639921011454
C           -0.00989963537563        1.66708982141590       -2.91474035776803
P           -1.18884666558580        0.96941066528267       -0.68459524169597
S           -2.86177058240006       -0.00783206362880       -1.57497270669610
S           -2.12650246407491       -1.86989372915872       -2.03298789567719
C           -2.51009619421875       -2.81275495772589       -0.56547658345582
C           -1.45182434141021       -3.33851450287731        0.16034341590027
C           -1.70551275561546       -4.06583800066823        1.30629636692790
C           -3.01975470292292       -4.25219255332080        1.70493920039635
F           -3.26751836907128       -4.93359152212218        2.82789982597885
C           -4.08455363770155       -3.74634863496000        0.97494771935342
C           -3.82487122088950       -3.02832203538516       -0.17536640833618
N           -1.51898254550006        2.55039704930588       -0.26937909989482
C           -0.31268146543038        3.34448998111941       -0.04155741839203
C           -2.81190130350797        3.29039138126503       -0.36054202312164
C           -3.17637717209834        3.52651162408383       -1.82401300919166
C           -3.90991129532923        2.51016434592497        0.36193395140785
C           -2.70847207905153        4.64857784329547        0.34388521169759
H           -2.69894687827323       -0.54209013494003        1.08633988179585
H           -2.15650192843410        0.78371261972050        2.11766075399869
H           -1.50607982954660       -0.85245728829242        2.35884902196934
H           -0.30103115710075        1.35785294095922        2.97970894387955
H            1.83607580197531        1.85205238025851        3.99391945759684
H            4.25513784867731        1.91220265706896        3.89387976721893
H            6.35554652181467        1.47136055343566        2.70171049787019
H            6.29048215165143        0.42148302544650        0.46146548077770
H            4.18877069109230       -0.25024319496200       -0.54386133682792
H            0.45077228126316       -0.61698597427756       -3.86218665334870
H            1.74312975251428       -2.64247121898378       -4.07860680806910
H            3.02355724704260       -4.44896150862141       -3.07825997817678
H            4.06207391255453       -5.49648659933608       -1.11557864223245
H            3.90189186214612       -4.38615589872153        1.09020303065432
H            2.79486141653307       -2.24047096434885        1.33194527312907
H           -0.35699063757281        2.67065042939523       -2.67179752881560
H            0.95926766266164        1.74038959517492       -3.40416163308769
H           -0.72679324134870        1.21798643603345       -3.60848964912417
H           -0.43691620636049       -3.18309942350907       -0.17069142692872
H           -0.90030749077570       -4.48090417962904        1.88985276112567
H           -5.09486140911194       -3.92248088769645        1.30697862838787
H           -4.64180547969394       -2.63532018103696       -0.76081103912103
H           -0.22521438685658        4.15044064029451       -0.77054325662269
H           -0.33759896931074        3.77423167001049        0.95802636969417
H            0.57568635266654        2.71364575701878       -0.11343347164508
H           -4.10140358602461        4.08999788910164       -1.88685498407670
H           -2.39826027428861        4.10324188901237       -2.31844709799130
H           -3.31060500965156        2.58290826227403       -2.35029187274972
H           -3.65447395095202        2.37989359306869        1.41064286381057
H           -4.09141018775359        1.53732379402888       -0.08853275977607
H           -4.83488530926491        3.07772666822276        0.31562755898191
H           -3.68845110212495        5.11542851991300        0.31027276442454
H           -2.43202011728621        4.54009427580898        1.38776631971092
H           -2.01207777436278        5.32156035942713       -0.14238076758272
74
 energy: -110.253475293408 gnorm: 0.011444662158 xtb: 6.7.1 (edcfbbe)
C           -1.83686250952857       -0.16173593589877        1.61891086461896
N           -0.75132330081108        0.07247882502221        0.67078186184527
C            0.52822932485128        0.39891604529141        1.23397472927388
C            0.59087961770953        1.07493751844251        2.46587730296880
C            1.79454694675289        1.36673472111384        3.03224817565096
C            2.99736997281736        1.06094272425201        2.36496913930800
C            4.24251142772061        1.42163721510167        2.91917609315611
C            5.40325552102903        1.17439485886592        2.24536365855406
C            5.35395706873684        0.56565486910530        0.98141479984570
C            4.16331210996444        0.18433838004500        0.42695990165296
C            2.94450686365927        0.39870875468467        1.10655402551385
C            1.67500530908740        0.01586509193324        0.57506796256753
C            1.59245816725967       -0.77981817999887       -0.67033077160175
C            0.88694752142687       -0.31857688756588       -1.76152134687651
C            0.94293127686185       -0.99778680767753       -2.99326589250185
C            1.66445230025589       -2.14596499348430       -3.11973352288268
C            2.30815303316692       -2.71903987537073       -2.00463661609882
C            2.97970214398764       -3.95470220348308       -2.10696350756526
C            3.55366827371179       -4.52911267190171       -1.00970497684094
C            3.46794998687608       -3.88519953413169        0.23481186203682
C            2.84567196257107       -2.67403725332420        0.36108651236981
C            2.25871313369656       -2.04003181778292       -0.75582557535580
N            0.14423083419786        0.90786465207774       -1.67018556594045
C           -0.00858511894334        1.67841925726791       -2.90462860818927
P           -1.18524609922529        0.97432186474582       -0.66943840695588
S           -2.87072362166735        0.01712118459439       -1.54855660129335
S           -2.09584578552653       -1.82721290574925       -2.00981572040397
C           -2.48998215929146       -2.79038131233302       -0.55532085115267
C           -1.43455199872618       -3.32384483562145        0.16868790047460
C           -1.69581921207245       -4.06355768263496        1.30619444201268
C           -3.01330366755406       -4.24883569325895        1.69542735194012
F           -3.26754949514299       -4.93681880161341        2.81327431170650
C           -4.07505070980343       -3.73700998085987        0.96482842403387
C           -3.80817068564452       -3.00797435263855       -0.17839669370310
N           -1.51447456887835        2.55445318290161       -0.26231546297114
C           -0.30020536321333        3.34181969643730       -0.03684455263346
C           -2.80790628421835        3.28999708739613       -0.36485561795581
C           -3.16902411195724        3.51383947706910       -1.83146540450392
C           -3.90176604702991        2.49755221646801        0.34864479888334
C           -2.70435492105444        4.64518284600406        0.34004003802543
H           -2.69166369429309       -0.57925560126725        1.08781588927315
H           -2.16620772067157        0.74876386438622        2.12547502911844
H           -1.49687463093720       -0.88128703318267        2.36047533180982
H           -0.31404752029256        1.35646802316444        2.97725525073230
H            1.83900785435687        1.85686848341461        3.99219748693936
H            4.25273196865726        1.90790773886459        3.88285506828901
H            6.35270786459048        1.45589700229079        2.67359124079889
H            6.27409231621692        0.40257396626736        0.44209637827613
H            4.15646639345328       -0.27457984675403       -0.54990097159652
H            0.42071034831831       -0.61266696148768       -3.85245934185055
H            1.72976784464048       -2.64397591305275       -4.07408891851217
H            3.01656365236343       -4.44005379501928       -3.07037804201549
H            4.06088387367691       -5.47772228429453       -1.09310206931031
H            3.89949626451000       -4.36027288311130        1.10223404267813
H            2.78911089640327       -2.20400228501359        1.33115644462403
H           -0.35210251569255        2.68001937021765       -2.65383982974233
H            0.96284882967435        1.74862477000266       -3.39047277190251
H           -0.72538442908597        1.23439137797716       -3.60111315768500
H           -0.41973833634093       -3.16400702899559       -0.15998128341910
H           -0.89659167472397       -4.48976577863068        1.89020777937513
H           -5.08654389956560       -3.91754418506319        1.29111218112896
H           -4.61921665917637       -2.60714459535479       -0.76699834057419
H           -0.20068117065909        4.14483459320979       -0.76817628602258
H           -0.31390204528576        3.77753372581538        0.96104488261416
H            0.57633456961972        2.69685606768220       -0.10960813815916
H           -4.09835343814505        4.07034967275409       -1.90096505098753
H           -2.39461639932928        4.09064806649340       -2.33112206041735
H           -3.29855404689900        2.56418708707317       -2.34735763093193
H           -3.64776153555396        2.36277422545928        1.39667408192657
H           -4.06669259994450        1.52649877047020       -0.11111601130194
H           -4.83439108058751        3.05213831069636        0.29944814269588
H           -3.68354101278629        5.11388566469454        0.30921010869346
H           -2.42584708368661        4.53054002922680        1.38323423699188
H           -2.00571831887683        5.31698163757592       -0.14588613254952
74
 energy: -110.254615879774 gnorm: 0.009987970342 xtb: 6.7.1 (edcfbbe)
C           -1.83981757112540       -0.20459646466616        1.62502216298346
N           -0.76156654613788        0.05421322088238        0.67560148607668
C            0.51408535625334        0.39784515883087        1.24064395413337
C            0.57939537984196        1.07807951263885        2.47144149968539
C            1.78805174815328        1.37298863877467        3.02856748189994
C            2.98741343481764        1.06278849987848        2.35547944750796
C            4.23918764777978        1.41658774470436        2.90073137989271
C            5.39381348951629        1.15966313333201        2.21770081980160
C            5.33642394035594        0.54575422776998        0.95605321539324
C            4.14004642040757        0.17065948086412        0.41090570638998
C            2.92872044886703        0.39998893358818        1.10038909599555
C            1.65809495513613        0.01964857734890        0.57622376251417
C            1.57174923360319       -0.77535448795695       -0.66828029077903
C            0.86715170521134       -0.31397868665221       -1.75758732221382
C            0.91649193589727       -0.99635003261598       -2.98953374923133
C            1.63960220325166       -2.14484398774573       -3.11348793148789
C            2.28915323004674       -2.71199093000030       -1.99788314476089
C            2.96818101358368       -3.94455632324669       -2.09316709146711
C            3.54603644707510       -4.50800842493089       -0.99088935094125
C            3.46155337303302       -3.85885037367095        0.25142160189721
C            2.83275361847549       -2.65088887157682        0.37050851749796
C            2.24010992627038       -2.03206468489450       -0.75249921398133
N            0.13084655313108        0.91340559395526       -1.66095357344390
C           -0.00937107225559        1.69613561246862       -2.88834806157855
P           -1.18858230479074        0.98114996663425       -0.65088226074075
S           -2.84831610723955        0.01294028688335       -1.54404525870465
S           -2.05884073693588       -1.82063728672871       -2.00963474539454
C           -2.45967367742842       -2.76703705453829       -0.54728671685077
C           -1.40880380321413       -3.30724521311167        0.17882251653254
C           -1.68112190703253       -4.05903494070687        1.30697532375628
C           -3.00274777832999       -4.24333271908023        1.68335229768910
F           -3.26706826706648       -4.94280923342760        2.79263766435700
C           -4.05887846886283       -3.72030262084773        0.95244504635460
C           -3.78175939825147       -2.97962417347803       -0.18216671980886
N           -1.50509404855191        2.56049320941786       -0.25419781275249
C           -0.28395640504011        3.34088040534748       -0.02771023027542
C           -2.79931791399336        3.28907359196087       -0.36883405556313
C           -3.15523970250494        3.49980630751710       -1.83965062499493
C           -3.89253062182828        2.49090048857875        0.33879135440298
C           -2.69877909050630        4.64342286178854        0.33432754745380
H           -2.68653155538293       -0.63721347219467        1.09506184780803
H           -2.18460981146019        0.69532134378744        2.13994059904098
H           -1.48268805903334       -0.92363561536793        2.36054616292471
H           -0.32826539849130        1.35608489342101        2.98001947333552
H            1.84283683160753        1.86675177116340        3.98689642813958
H            4.25579148050381        1.90277357573333        3.86485132380629
H            6.35000007198430        1.43461590478849        2.63496031976628
H            6.25407125835677        0.37346199047689        0.41498390922242
H            4.11512262540318       -0.29789743745030       -0.56156052540925
H            0.38318675411146       -0.61074623068371       -3.84171815769901
H            1.70375357640159       -2.64974263323594       -4.06493373563837
H            3.00719833708838       -4.43230044790668       -3.05580987956682
H            4.05951952459505       -5.45393179307891       -1.06415677628268
H            3.90018875361372       -4.32699885020394        1.11925091734011
H            2.77457050208716       -2.16488579576661        1.33293743298660
H           -0.34512998928225        2.69770885058218       -2.63051207228830
H            0.96596655349669        1.76227907947363       -3.36820872570517
H           -0.72557373763933        1.26294201791346       -3.59177474277843
H           -0.39248288292132       -3.14279983924104       -0.14378260132980
H           -0.88944427811509       -4.49844346728671        1.89227032434024
H           -5.07285190272039       -3.90496293027592        1.26958197218910
H           -4.58538906302554       -2.56892761088942       -0.77490149671094
H           -0.17177746437716        4.13948834520299       -0.76289029879349
H           -0.28945114581092        3.78219746566353        0.96843618694416
H            0.58253891886662        2.68434407310227       -0.09770155478643
H           -4.09031208132441        4.04746414492108       -1.91802822468150
H           -2.38497691040061        4.07714839837141       -2.34560886698415
H           -3.27820996836495        2.54451319793497       -2.34587147705955
H           -3.64111554699662        2.34945514268382        1.38665133035049
H           -4.04896428469840        1.52346529662168       -0.12702291011963
H           -4.83151983869995        3.03470106640135        0.28636735261118
H           -3.67738872632894        5.11444950100531        0.30602541003204
H           -2.41762130611748        4.52478019226315        1.37713101156351
H           -1.99783787653788        5.31362392878199       -0.15242768381318
74
 energy: -110.255160497493 gnorm: 0.006437609049 xtb: 6.7.1 (edcfbbe)
C           -1.84307672173343       -0.24156000245225        1.62814799376542
N           -0.77269246410157        0.04455392616644        0.67698794506498
C            0.49917686104351        0.39895977740583        1.24495369753352
C            0.57039056390614        1.08100863377756        2.47440683771071
C            1.78378958466530        1.38021662355375        3.02267290067869
C            2.97951270276586        1.06807928677023        2.34456969109293
C            4.23635241524778        1.41528378501494        2.88325999900970
C            5.38677765070367        1.14859299523703        2.19517594130936
C            5.32372742829056        0.53228271741922        0.93591980802843