      -----------------------------------------------------------      
     |                   =====================                   |     
     |                           x T B                           |     
     |                   =====================                   |     
     |                         S. Grimme                         |     
     |          Mulliken Center for Theoretical Chemistry        |     
     |                    University of Bonn                     |     
      -----------------------------------------------------------      

   * xtb version 6.7.1 (edcfbbe) compiled by 'conda@3ef47c1a292c' on 2024-11-25

   xtb is free software: you can redistribute it and/or modify it under
   the terms of the GNU Lesser General Public License as published by
   the Free Software Foundation, either version 3 of the License, or
   (at your option) any later version.
   
   xtb is distributed in the hope that it will be useful,
   but WITHOUT ANY WARRANTY; without even the implied warranty of
   MERCHANTABILITY or FITNESS FOR A PARTICULAR PURPOSE.  See the
   GNU Lesser General Public License for more details.
   
   Cite this work as:
   * C. Bannwarth, E. Caldeweyher, S. Ehlert, A. Hansen, P. Pracht,
     J. Seibert, S. Spicher, S. Grimme, WIREs Comput. Mol. Sci., 2020, 11,
     e01493. DOI: 10.1002/wcms.1493
   
   for GFN2-xTB:
   * C. Bannwarth, S. Ehlert and S. Grimme., J. Chem. Theory Comput., 2019,
     15, 1652-1671. DOI: 10.1021/acs.jctc.8b01176
   for GFN1-xTB:
   * S. Grimme, C. Bannwarth, P. Shushkov, J. Chem. Theory Comput., 2017,
     13, 1989-2009. DOI: 10.1021/acs.jctc.7b00118
   for GFN0-xTB:
   * P. Pracht, E. Caldeweyher, S. Ehlert, S. Grimme, ChemRxiv, 2019, preprint.
     DOI: 10.26434/chemrxiv.8326202.v1
   for GFN-FF:
   * S. Spicher and S. Grimme, Angew. Chem. Int. Ed., 2020, 59, 15665-15673.
     DOI: 10.1002/anie.202004239
   
   for ALPB and GBSA implicit solvation:
   * S. Ehlert, M. Stahn, S. Spicher, S. Grimme, J. Chem. Theory Comput.,
     2021, 17, 4250-4261. DOI: 10.1021/acs.jctc.1c00471
   
   for ddCOSMO and CPCM-X implicit solvation:
   * M. Stahn, S. Ehlert, S. Grimme, J. Phys. Chem. A,
     2023, XX, XXXX-XXXX. DOI: 10.1021/acs.jpca.3c04382
   
   for DFT-D4:
   * E. Caldeweyher, C. Bannwarth and S. Grimme, J. Chem. Phys., 2017,
     147, 034112. DOI: 10.1063/1.4993215
   * E. Caldeweyher, S. Ehlert, A. Hansen, H. Neugebauer, S. Spicher,
     C. Bannwarth and S. Grimme, J. Chem. Phys., 2019, 150, 154122.
     DOI: 10.1063/1.5090222
   * E. Caldeweyher, J.-M. Mewes, S. Ehlert and S. Grimme, Phys. Chem. Chem. Phys.
     2020, 22, 8499-8512. DOI: 10.1039/D0CP00502A
   
   for sTDA-xTB:
   * S. Grimme and C. Bannwarth, J. Chem. Phys., 2016, 145, 054103.
     DOI: 10.1063/1.4959605
   
   in the mass-spec context:
   * V. Asgeirsson, C. Bauer and S. Grimme, Chem. Sci., 2017, 8, 4879.
     DOI: 10.1039/c7sc00601b
   * J. Koopman and S. Grimme, ACS Omega 2019, 4, 12, 15120-15133.
     DOI: 10.1021/acsomega.9b02011
   
   for metadynamics refer to:
   * S. Grimme, J. Chem. Theory Comput., 2019, 155, 2847-2862
     DOI: 10.1021/acs.jctc.9b00143
   
   for SPH calculations refer to:
   * S. Spicher and S. Grimme, J. Chem. Theory Comput., 2021, 17, 1701-1714
     DOI: 10.1021/acs.jctc.0c01306
   
   for ONIOM refer to:
   * C. Plett, A. Katbashev, S. Ehlert, S. Grimme, M. Bursch,
     Phys. Chem. Chem. Phys., 2023, 25, 17860-17868. DOI: 10.1039/D3CP02178E
   
   for DIPRO refer to:
   * J. Kohn, N. Gildemeister, S. Grimme, D. Fazzi, A. Hansen,
     J. Chem. Phys., 2023, just accepted.
   
   for PTB refer to:
   * S. Grimme, M. Mueller, A. Hansen, J. Chem. Phys., 2023, 158, 124111.
     DOI: 10.1063/5.0137838
   
   with help from (in alphabetical order)
   P. Atkinson, C. Bannwarth, F. Bohle, G. Brandenburg, E. Caldeweyher
   M. Checinski, S. Dohm, S. Ehlert, S. Ehrlich, I. Gerasimov, C. Hölzer
   A. Katbashev, J. Kohn, J. Koopman, C. Lavigne, S. Lehtola, F. März, M. Müller,
   F. Musil, H. Neugebauer, J. Pisarek, C. Plett, P. Pracht, F. Pultar,
   J. Seibert, P. Shushkov, S. Spicher, M. Stahn, M. Steiner, T. Strunk,
   J. Stückrath, T. Rose, and J. Unsleber
   
 * started run on 2024/12/16 at 18:52:28.903     
   ID    Z sym.   atoms
    1    6 C      1, 3-22, 24, 28-33, 35-44
    2    7 N      2, 23, 34
    3   15 P      25
    4   16 S      26, 27
    5    1 H      45-81

           -------------------------------------------------
          |                Calculation Setup                |
           -------------------------------------------------

          program call               : xtb --gfn2 --opt extreme -P 8 --charge 1 molecule.xyz
          hostname                   : node20
          coordinate file            : molecule.xyz
          omp threads                :                     8


           -------------------------------------------------
          |                 G F N 2 - x T B                 |
           -------------------------------------------------

        Reference                      10.1021/acs.jctc.8b01176
      * Hamiltonian:
        H0-scaling (s, p, d)           1.850000    2.230000    2.230000
        zeta-weighting                 0.500000
      * Dispersion:
        s8                             2.700000
        a1                             0.520000
        a2                             5.000000
        s9                             5.000000
      * Repulsion:
        kExp                           1.500000    1.000000
        rExp                           1.000000
      * Coulomb:
        alpha                          2.000000
        third order                    shell-resolved
        anisotropic                    true
        a3                             3.000000
        a5                             4.000000
        cn-shift                       1.200000
        cn-exp                         4.000000
        max-rad                        5.000000


          ...................................................
          :                      SETUP                      :
          :.................................................:
          :  # basis functions                 231          :
          :  # atomic orbitals                 228          :
          :  # shells                          128          :
          :  # electrons                       220          :
          :  max. iterations                   250          :
          :  Hamiltonian                  GFN2-xTB          :
          :  restarted?                      false          :
          :  GBSA solvation                  false          :
          :  PC potential                    false          :
          :  electronic temp.          300.0000000     K    :
          :  accuracy                    1.0000000          :
          :  -> integral cutoff          0.2500000E+02      :
          :  -> integral neglect         0.1000000E-07      :
          :  -> SCF convergence          0.1000000E-05 Eh   :
          :  -> wf. convergence          0.1000000E-03 e    :
          :  Broyden damping             0.4000000          :
          :  net charge                          1          :
          :  unpaired electrons                  0          :
          ...................................................

 iter      E             dE          RMSdq      gap      omega  full diag
   1   -119.4081517 -0.119408E+03  0.443E+00    1.68       0.0  T
   2   -119.5575939 -0.149442E+00  0.270E+00    2.10       1.0  T
   3   -119.5252571  0.323368E-01  0.131E+00    1.94       1.0  T
   4   -119.5616735 -0.364164E-01  0.626E-01    1.65       1.0  T
   5   -119.5843581 -0.226846E-01  0.268E-01    1.77       1.0  T
   6   -119.5866861 -0.232796E-02  0.139E-01    1.74       1.0  T
   7   -119.5882244 -0.153830E-02  0.447E-02    1.76       1.0  T
   8   -119.5882609 -0.364799E-04  0.201E-02    1.76       1.0  T
   9   -119.5882660 -0.509584E-05  0.939E-03    1.76       1.2  T
  10   -119.5882672 -0.123927E-05  0.482E-03    1.76       2.3  T
  11   -119.5882677 -0.507098E-06  0.220E-03    1.76       5.0  T
  12   -119.5882679 -0.163077E-06  0.115E-03    1.76       9.7  T
  13   -119.5882679 -0.172613E-07  0.625E-04    1.76      17.8  T
  14   -119.5882679 -0.789484E-08  0.316E-04    1.76      35.2  T

   *** convergence criteria satisfied after 14 iterations ***

         #    Occupation            Energy/Eh            Energy/eV
      -------------------------------------------------------------
         1        2.0000           -0.8594514             -23.3869
       ...           ...                  ...                  ...
       104        2.0000           -0.4949583             -13.4685
       105        2.0000           -0.4915980             -13.3771
       106        2.0000           -0.4895989             -13.3227
       107        2.0000           -0.4828810             -13.1399
       108        2.0000           -0.4817125             -13.1081
       109        2.0000           -0.4673255             -12.7166
       110        2.0000           -0.4541674             -12.3585 (HOMO)
       111                         -0.3895064             -10.5990 (LUMO)
       112                         -0.3703308             -10.0772
       113                         -0.3552305              -9.6663
       114                         -0.3481425              -9.4734
       115                         -0.3359471              -9.1416
       ...                                ...                  ...
       228                          1.0513212              28.6079
      -------------------------------------------------------------
                  HL-Gap            0.0646610 Eh            1.7595 eV
             Fermi-level           -0.4218369 Eh          -11.4788 eV

 SCC (total)                   0 d,  0 h,  0 min,  2.202 sec
 SCC setup                      ...        0 min,  0.000 sec (  0.018%)
 Dispersion                     ...        0 min,  0.002 sec (  0.087%)
 classical contributions        ...        0 min,  0.000 sec (  0.005%)
 integral evaluation            ...        0 min,  0.009 sec (  0.425%)
 iterations                     ...        0 min,  2.065 sec ( 93.762%)
 molecular gradient             ...        0 min,  0.121 sec (  5.488%)
 printout                       ...        0 min,  0.005 sec (  0.211%)

         :::::::::::::::::::::::::::::::::::::::::::::::::::::
         ::                     SUMMARY                     ::
         :::::::::::::::::::::::::::::::::::::::::::::::::::::
         :: total energy            -117.714198303121 Eh    ::
         :: gradient norm              0.133950954599 Eh/a0 ::
         :: HOMO-LUMO gap              1.759514824240 eV    ::
         ::.................................................::
         :: SCC energy              -119.582221074713 Eh    ::
         :: -> isotropic ES            0.075746152746 Eh    ::
         :: -> anisotropic ES          0.003717281444 Eh    ::
         :: -> anisotropic XC          0.076149087742 Eh    ::
         :: -> dispersion             -0.129380606878 Eh    ::
         :: repulsion energy           1.868022771592 Eh    ::
         :: add. restraining           0.000000000000 Eh    ::
         :: total charge               1.000000000000 e     ::
         :::::::::::::::::::::::::::::::::::::::::::::::::::::

      ----------------------------------------------------------- 
     |                   =====================                   |
     |                        A N C O P T                        |
     |                   =====================                   |
     |               Approximate Normal Coordinate               |
     |                Rational Function Optimizer                |
      ----------------------------------------------------------- 
      ----------------------------------------------------------- 
     |                   =====================                   |
     |                        A N C O P T                        |
     |                   =====================                   |
     |               Approximate Normal Coordinate               |
     |                Rational Function Optimizer                |
      ----------------------------------------------------------- 

          ...................................................
          :                      SETUP                      :
          :.................................................:
          :   optimization level           extreme          :
          :   max. optcycles                  1620          :
          :   ANC micro-cycles                  20          :
          :   degrees of freedom               237          :
          :.................................................:
          :   RF solver                   davidson          :
          :   write xtbopt.log                true          :
          :   linear?                        false          :
          :   energy convergence         0.5000000E-07 Eh   :
          :   grad. convergence          0.5000000E-04 Eh/α :
          :   maxmium RF displ.          1.0000000          :
          :   Hlow (freq-cutoff)         0.1000000E-01      :
          :   Hmax (freq-cutoff)         5.0000000          :
          :   S6 in model hess.         20.0000000          :
          ...................................................

generating ANC from exact Hessian ...
Using Lindh-Hessian (1995)
 Shifting diagonal of input Hessian by    9.8764821701102269E-003
 Lowest  eigenvalues of input Hessian
    0.000000    0.000000    0.000000    0.000000    0.000000    0.000000
    0.010000    0.010054    0.010072    0.010196    0.010317    0.010336
    0.010524    0.010589    0.011052    0.011216    0.011283    0.011412
 Highest eigenvalues
    1.943851    1.963832    1.990553    2.026029    2.068502    2.071980


........................................................................
.............................. CYCLE    1 ..............................
........................................................................

 iter      E             dE          RMSdq      gap      omega  full diag
   1   -119.5882679 -0.119588E+03  0.181E-04    1.76       0.0  T
   2   -119.5882679 -0.238018E-09  0.136E-04    1.76      81.4  T
   3   -119.5882679 -0.107661E-09  0.105E-04    1.76     105.5  T
     SCC iter.                  ...        0 min,  0.333 sec
     gradient                   ...        0 min,  0.115 sec
 * total energy  :  -117.7141983 Eh     change       -0.1592184E-08 Eh
   gradient norm :     0.1339524 Eh/α   predicted     0.0000000E+00 (-100.00%)
   displ. norm   :     0.4067948 α      lambda       -0.2834773E-01
   maximum displ.:     0.0957342 α      in ANC's #21, #26, #53, ...

........................................................................
.............................. CYCLE    2 ..............................
........................................................................

 iter      E             dE          RMSdq      gap      omega  full diag
   1   -119.6709710 -0.119671E+03  0.259E-01    1.86       0.0  T
   2   -119.6711113 -0.140246E-03  0.139E-01    1.93       1.0  T
   3   -119.6709911  0.120228E-03  0.496E-02    1.97       1.0  T
   4   -119.6711166 -0.125549E-03  0.265E-02    1.98       1.0  T
   5   -119.6711503 -0.337128E-04  0.117E-02    1.97       1.0  T
   6   -119.6711567 -0.641231E-05  0.469E-03    1.97       2.4  T
   7   -119.6711573 -0.533507E-06  0.292E-03    1.97       3.8  T
   8   -119.6711574 -0.148065E-06  0.164E-03    1.97       6.8  T
   9   -119.6711574 -0.312368E-07  0.864E-04    1.97      12.9  T
  10   -119.6711574 -0.608340E-08  0.374E-04    1.97      29.7  T
     SCC iter.                  ...        0 min,  1.498 sec
     gradient                   ...        0 min,  0.120 sec
 * total energy  :  -117.7342731 Eh     change       -0.2007475E-01 Eh
   gradient norm :     0.0578567 Eh/α   predicted    -0.1654919E-01 ( -17.56%)
   displ. norm   :     0.4320756 α      lambda       -0.1085245E-01
   maximum displ.:     0.1550475 α      in ANC's #21, #18, #16, ...

........................................................................
.............................. CYCLE    3 ..............................
........................................................................

 iter      E             dE          RMSdq      gap      omega  full diag
   1   -119.7201514 -0.119720E+03  0.202E-01    2.09       0.0  T
   2   -119.7201995 -0.480462E-04  0.111E-01    2.13       1.0  T
   3   -119.7201347  0.647536E-04  0.331E-02    2.15       1.0  T
   4   -119.7202075 -0.727698E-04  0.148E-02    2.15       1.0  T
   5   -119.7202165 -0.902252E-05  0.692E-03    2.15       1.6  T
   6   -119.7202191 -0.255084E-05  0.239E-03    2.15       4.7  T
   7   -119.7202192 -0.121646E-06  0.129E-03    2.15       8.6  T
   8   -119.7202192 -0.465066E-07  0.570E-04    2.15      19.5  T
   9   -119.7202193 -0.416223E-08  0.322E-04    2.15      34.5  T
     SCC iter.                  ...        0 min,  1.306 sec
     gradient                   ...        0 min,  0.116 sec
 * total energy  :  -117.7410571 Eh     change       -0.6784002E-02 Eh
   gradient norm :     0.0144320 Eh/α   predicted    -0.6439248E-02 (  -5.08%)
   displ. norm   :     0.4044222 α      lambda       -0.2853542E-02
   maximum displ.:     0.1785061 α      in ANC's #21, #16, #18, ...

........................................................................
.............................. CYCLE    4 ..............................
........................................................................

 iter      E             dE          RMSdq      gap      omega  full diag
   1   -119.7253842 -0.119725E+03  0.124E-01    2.19       0.0  T
   2   -119.7254039 -0.197447E-04  0.658E-02    2.21       1.0  T
   3   -119.7253948  0.913039E-05  0.173E-02    2.21       1.0  T
   4   -119.7254023 -0.754495E-05  0.989E-03    2.22       1.1  T
   5   -119.7254076 -0.524344E-05  0.359E-03    2.21       3.1  T
   6   -119.7254082 -0.629294E-06  0.164E-03    2.21       6.8  T
   7   -119.7254083 -0.126912E-06  0.641E-04    2.21      17.3  T
   8   -119.7254083 -0.678639E-08  0.376E-04    2.21      29.6  T
     SCC iter.                  ...        0 min,  1.168 sec
     gradient                   ...        0 min,  0.119 sec
 * total energy  :  -117.7431800 Eh     change       -0.2122989E-02 Eh
   gradient norm :     0.0133894 Eh/α   predicted    -0.1660166E-02 ( -21.80%)
   displ. norm   :     0.4932586 α      lambda       -0.2164604E-02
   maximum displ.:     0.2142401 α      in ANC's #21, #17, #18, ...

........................................................................
.............................. CYCLE    5 ..............................
........................................................................

 iter      E             dE          RMSdq      gap      omega  full diag
   1   -119.7265223 -0.119727E+03  0.112E-01    2.24       0.0  T
   2   -119.7265365 -0.142282E-04  0.619E-02    2.24       1.0  T
   3   -119.7265304  0.607741E-05  0.166E-02    2.24       1.0  T
   4   -119.7265389 -0.849951E-05  0.522E-03    2.24       2.1  T
   5   -119.7265394 -0.465997E-06  0.289E-03    2.24       3.8  T
   6   -119.7265397 -0.276822E-06  0.102E-03    2.24      10.9  T
   7   -119.7265397 -0.995848E-08  0.509E-04    2.24      21.8  T
   8   -119.7265397 -0.611450E-08  0.228E-04    2.24      48.7  T
     SCC iter.                  ...        0 min,  1.215 sec
     gradient                   ...        0 min,  0.115 sec
 * total energy  :  -117.7447023 Eh     change       -0.1522259E-02 Eh
   gradient norm :     0.0104513 Eh/α   predicted    -0.1345633E-02 ( -11.60%)
   displ. norm   :     0.4341030 α      lambda       -0.1148160E-02
   maximum displ.:     0.1692652 α      in ANC's #17, #21, #6, ...

........................................................................
.............................. CYCLE    6 ..............................
........................................................................

 iter      E             dE          RMSdq      gap      omega  full diag
   1   -119.7261092 -0.119726E+03  0.906E-02    2.24       0.0  T
   2   -119.7261197 -0.104890E-04  0.460E-02    2.24       1.0  T
   3   -119.7261189  0.783444E-06  0.119E-02    2.25       1.0  T
   4   -119.7261201 -0.119218E-05  0.634E-03    2.25       1.8  T
   5   -119.7261213 -0.119871E-05  0.204E-03    2.25       5.4  T
   6   -119.7261215 -0.110649E-06  0.104E-03    2.25      10.6  T
   7   -119.7261215 -0.437194E-07  0.603E-04    2.25      18.4  T
   8   -119.7261215 -0.732433E-08  0.364E-04    2.25      30.6  T
     SCC iter.                  ...        0 min,  1.089 sec
     gradient                   ...        0 min,  0.119 sec
 * total energy  :  -117.7454866 Eh     change       -0.7842837E-03 Eh
   gradient norm :     0.0067150 Eh/α   predicted    -0.6822670E-03 ( -13.01%)
   displ. norm   :     0.3738625 α      lambda       -0.6706329E-03
   maximum displ.:     0.1559563 α      in ANC's #6, #15, #17, ...

........................................................................
.............................. CYCLE    7 ..............................
........................................................................

 iter      E             dE          RMSdq      gap      omega  full diag
   1   -119.7284403 -0.119728E+03  0.691E-02    2.26       0.0  T
   2   -119.7284447 -0.439777E-05  0.381E-02    2.26       1.0  T
   3   -119.7284424  0.226090E-05  0.832E-03    2.25       1.3  T
   4   -119.7284453 -0.286281E-05  0.341E-03    2.25       3.3  T
   5   -119.7284456 -0.317558E-06  0.170E-03    2.25       6.5  T
   6   -119.7284457 -0.929181E-07  0.808E-04    2.25      13.7  T
   7   -119.7284457 -0.224959E-07  0.439E-04    2.25      25.3  T
     SCC iter.                  ...        0 min,  0.972 sec
     gradient                   ...        0 min,  0.116 sec
 * total energy  :  -117.7459689 Eh     change       -0.4823200E-03 Eh
   gradient norm :     0.0063449 Eh/α   predicted    -0.3821892E-03 ( -20.76%)
   displ. norm   :     0.3717100 α      lambda       -0.5264605E-03
   maximum displ.:     0.1727959 α      in ANC's #6, #4, #15, ...

........................................................................
.............................. CYCLE    8 ..............................
........................................................................

 iter      E             dE          RMSdq      gap      omega  full diag
   1   -119.7307816 -0.119731E+03  0.618E-02    2.26       0.0  T
   2   -119.7307831 -0.154003E-05  0.351E-02    2.27       1.0  T
   3   -119.7307804  0.273625E-05  0.732E-03    2.27       1.5  T
   4   -119.7307836 -0.329355E-05  0.271E-03    2.27       4.1  T
   5   -119.7307838 -0.173174E-06  0.927E-04    2.27      12.0  T
   6   -119.7307839 -0.353841E-07  0.491E-04    2.27      22.6  T
     SCC iter.                  ...        0 min,  0.600 sec
     gradient                   ...        0 min,  0.114 sec
 * total energy  :  -117.7463786 Eh     change       -0.4096385E-03 Eh
   gradient norm :     0.0062752 Eh/α   predicted    -0.2996060E-03 ( -26.86%)
   displ. norm   :     0.4299388 α      lambda       -0.5176891E-03
   maximum displ.:     0.2074549 α      in ANC's #6, #1, #4, ...

........................................................................
.............................. CYCLE    9 ..............................
........................................................................

 iter      E             dE          RMSdq      gap      omega  full diag
   1   -119.7320886 -0.119732E+03  0.733E-02    2.27       0.0  T
   2   -119.7320911 -0.246525E-05  0.415E-02    2.28       1.0  T
   3   -119.7320878  0.327046E-05  0.868E-03    2.28       1.3  T
   4   -119.7320913 -0.350027E-05  0.381E-03    2.28       2.9  T
   5   -119.7320919 -0.577476E-06  0.149E-03    2.28       7.4  T
   6   -119.7320920 -0.134703E-06  0.657E-04    2.28      16.9  T
   7   -119.7320921 -0.223456E-07  0.313E-04    2.28      35.5  T
     SCC iter.                  ...        0 min,  0.908 sec
     gradient                   ...        0 min,  0.120 sec
 * total energy  :  -117.7467932 Eh     change       -0.4146027E-03 Eh
   gradient norm :     0.0054298 Eh/α   predicted    -0.3066933E-03 ( -26.03%)
   displ. norm   :     0.4852942 α      lambda       -0.5027965E-03
   maximum displ.:     0.2370428 α      in ANC's #6, #1, #4, ...

........................................................................
.............................. CYCLE   10 ..............................
........................................................................

 iter      E             dE          RMSdq      gap      omega  full diag
   1   -119.7324086 -0.119732E+03  0.820E-02    2.29       0.0  T
   2   -119.7324112 -0.264496E-05  0.463E-02    2.29       1.0  T
   3   -119.7324090  0.223464E-05  0.841E-03    2.30       1.3  T
   4   -119.7324108 -0.179578E-05  0.464E-03    2.30       2.4  T
   5   -119.7324120 -0.118165E-05  0.164E-03    2.30       6.8  T
   6   -119.7324121 -0.154737E-06  0.792E-04    2.30      14.0  T
   7   -119.7324121 -0.165816E-07  0.497E-04    2.30      22.3  T
     SCC iter.                  ...        0 min,  1.022 sec
     gradient                   ...        0 min,  0.119 sec
 * total energy  :  -117.7472062 Eh     change       -0.4130766E-03 Eh
   gradient norm :     0.0048504 Eh/α   predicted    -0.3106161E-03 ( -24.80%)
   displ. norm   :     0.5345398 α      lambda       -0.5024833E-03
   maximum displ.:     0.2608250 α      in ANC's #6, #1, #4, ...

........................................................................
.............................. CYCLE   11 ..............................
........................................................................

 iter      E             dE          RMSdq      gap      omega  full diag
   1   -119.7313235 -0.119731E+03  0.889E-02    2.30       0.0  T
   2   -119.7313263 -0.287933E-05  0.500E-02    2.31       1.0  T
   3   -119.7313239  0.246153E-05  0.910E-03    2.31       1.2  T
   4   -119.7313249 -0.106501E-05  0.564E-03    2.31       2.0  T
   5   -119.7313272 -0.222990E-05  0.144E-03    2.31       7.7  T
   6   -119.7313273 -0.131146E-06  0.624E-04    2.31      17.8  T
   7   -119.7313273 -0.990859E-08  0.366E-04    2.31      30.4  T
     SCC iter.                  ...        0 min,  1.212 sec
     gradient                   ...        0 min,  0.119 sec
 * total energy  :  -117.7476247 Eh     change       -0.4184772E-03 Eh
   gradient norm :     0.0053158 Eh/α   predicted    -0.3230426E-03 ( -22.81%)
   displ. norm   :     0.5732610 α      lambda       -0.5026228E-03
   maximum displ.:     0.2744820 α      in ANC's #6, #1, #3, ...

........................................................................
.............................. CYCLE   12 ..............................
........................................................................

 iter      E             dE          RMSdq      gap      omega  full diag
   1   -119.7307230 -0.119731E+03  0.951E-02    2.33       0.0  T
   2   -119.7307264 -0.342115E-05  0.533E-02    2.33       1.0  T
   3   -119.7307242  0.220685E-05  0.983E-03    2.33       1.1  T
   4   -119.7307255 -0.126726E-05  0.572E-03    2.33       1.9  T
   5   -119.7307273 -0.184009E-05  0.158E-03    2.33       7.0  T
   6   -119.7307275 -0.162306E-06  0.721E-04    2.33      15.4  T
   7   -119.7307275 -0.135490E-07  0.449E-04    2.33      24.7  T
     SCC iter.                  ...        0 min,  1.259 sec
     gradient                   ...        0 min,  0.120 sec
 * total energy  :  -117.7480420 Eh     change       -0.4172993E-03 Eh
   gradient norm :     0.0058618 Eh/α   predicted    -0.3339014E-03 ( -19.99%)
   displ. norm   :     0.5932371 α      lambda       -0.4748848E-03
   maximum displ.:     0.2732128 α      in ANC's #6, #1, #3, ...

........................................................................
.............................. CYCLE   13 ..............................
........................................................................

 iter      E             dE          RMSdq      gap      omega  full diag
   1   -119.7302397 -0.119730E+03  0.967E-02    2.34       0.0  T
   2   -119.7302424 -0.271948E-05  0.551E-02    2.34       1.0  T
   3   -119.7302404  0.203190E-05  0.875E-03    2.34       1.3  T
   4   -119.7302419 -0.151628E-05  0.482E-03    2.34       2.3  T
   5   -119.7302431 -0.126235E-05  0.141E-03    2.34       7.9  T
   6   -119.7302433 -0.145212E-06  0.515E-04    2.34      21.6  T
   7   -119.7302433 -0.915776E-08  0.296E-04    2.34      37.5  T
     SCC iter.                  ...        0 min,  1.051 sec
     gradient                   ...        0 min,  0.119 sec
 * total energy  :  -117.7484302 Eh     change       -0.3881454E-03 Eh
   gradient norm :     0.0054073 Eh/α   predicted    -0.3210097E-03 ( -17.30%)
   displ. norm   :     0.5732730 α      lambda       -0.4062738E-03
   maximum displ.:     0.2529736 α      in ANC's #1, #3, #6, ...

........................................................................
.............................. CYCLE   14 ..............................
........................................................................

 iter      E             dE          RMSdq      gap      omega  full diag
   1   -119.7312751 -0.119731E+03  0.947E-02    2.36       0.0  T
   2   -119.7312780 -0.288474E-05  0.542E-02    2.36       1.0  T
   3   -119.7312763  0.172004E-05  0.853E-03    2.36       1.3  T
   4   -119.7312783 -0.199306E-05  0.377E-03    2.36       2.9  T
   5   -119.7312787 -0.443640E-06  0.140E-03    2.36       7.9  T
   6   -119.7312789 -0.117928E-06  0.472E-04    2.36      23.5  T
   7   -119.7312789 -0.759486E-08  0.288E-04    2.36      38.6  T
     SCC iter.                  ...        0 min,  1.208 sec
     gradient                   ...        0 min,  0.127 sec
 * total energy  :  -117.7487565 Eh     change       -0.3263432E-03 Eh
   gradient norm :     0.0044839 Eh/α   predicted    -0.2699028E-03 ( -17.29%)
   displ. norm   :     0.5417542 α      lambda       -0.3255817E-03
   maximum displ.:     0.2489641 α      in ANC's #3, #1, #6, ...

........................................................................
.............................. CYCLE   15 ..............................
........................................................................

 iter      E             dE          RMSdq      gap      omega  full diag
   1   -119.7321906 -0.119732E+03  0.898E-02    2.37       0.0  T
   2   -119.7321924 -0.183540E-05  0.522E-02    2.37       1.0  T
   3   -119.7321914  0.104023E-05  0.633E-03    2.37       1.8  T
   4   -119.7321928 -0.135972E-05  0.256E-03    2.37       4.3  T
   5   -119.7321929 -0.157222E-06  0.115E-03    2.37       9.6  T
   6   -119.7321930 -0.787790E-07  0.391E-04    2.37      28.4  T
   7   -119.7321930 -0.604838E-08  0.223E-04    2.37      49.9  T
     SCC iter.                  ...        0 min,  1.233 sec
     gradient                   ...        0 min,  0.131 sec
 * total energy  :  -117.7490170 Eh     change       -0.2605037E-03 Eh
   gradient norm :     0.0041151 Eh/α   predicted    -0.2105708E-03 ( -19.17%)
   displ. norm   :     0.4895751 α      lambda       -0.2665425E-03
   maximum displ.:     0.2387915 α      in ANC's #3, #1, #2, ...

........................................................................
.............................. CYCLE   16 ..............................
........................................................................

 iter      E             dE          RMSdq      gap      omega  full diag
   1   -119.7341854 -0.119734E+03  0.823E-02    2.38       0.0  T
   2   -119.7341868 -0.139679E-05  0.480E-02    2.38       1.0  T
   3   -119.7341857  0.107438E-05  0.548E-03    2.38       2.0  T
   4   -119.7341871 -0.143380E-05  0.186E-03    2.38       6.0  T
   5   -119.7341872 -0.745809E-07  0.844E-04    2.38      13.2  T
   6   -119.7341872 -0.282449E-07  0.344E-04    2.38      32.3  T
     SCC iter.                  ...        0 min,  0.666 sec
     gradient                   ...        0 min,  0.116 sec
 * total energy  :  -117.7492286 Eh     change       -0.2115874E-03 Eh
   gradient norm :     0.0038455 Eh/α   predicted    -0.1652160E-03 ( -21.92%)
   displ. norm   :     0.4590257 α      lambda       -0.2177383E-03
   maximum displ.:     0.2364451 α      in ANC's #3, #1, #2, ...

........................................................................
.............................. CYCLE   17 ..............................
........................................................................

 iter      E             dE          RMSdq      gap      omega  full diag
   1   -119.7341474 -0.119734E+03  0.779E-02    2.39       0.0  T
   2   -119.7341483 -0.923198E-06  0.456E-02    2.39       1.0  T
   3   -119.7341466  0.169236E-05  0.520E-03    2.39       2.1  T
   4   -119.7341486 -0.200912E-05  0.164E-03    2.39       6.8  T
   5   -119.7341487 -0.812042E-07  0.853E-04    2.39      13.0  T
   6   -119.7341487 -0.414547E-07  0.318E-04    2.39      34.9  T
     SCC iter.                  ...        0 min,  0.576 sec
     gradient                   ...        0 min,  0.114 sec
 * total energy  :  -117.7494018 Eh     change       -0.1732353E-03 Eh
   gradient norm :     0.0034715 Eh/α   predicted    -0.1318129E-03 ( -23.91%)
   displ. norm   :     0.3943294 α      lambda       -0.1951402E-03
   maximum displ.:     0.2146698 α      in ANC's #3, #8, #2, ...

........................................................................
.............................. CYCLE   18 ..............................
........................................................................

 iter      E             dE          RMSdq      gap      omega  full diag
   1   -119.7369776 -0.119737E+03  0.699E-02    2.39       0.0  T
   2   -119.7369784 -0.798095E-06  0.408E-02    2.39       1.0  T
   3   -119.7369770  0.138669E-05  0.471E-03    2.39       2.4  T
   4   -119.7369786 -0.162594E-05  0.175E-03    2.39       6.4  T
   5   -119.7369787 -0.979015E-07  0.831E-04    2.39      13.4  T
   6   -119.7369788 -0.407948E-07  0.328E-04    2.39      33.8  T
     SCC iter.                  ...        0 min,  0.620 sec
     gradient                   ...        0 min,  0.116 sec
 * total energy  :  -117.7495461 Eh     change       -0.1442491E-03 Eh
   gradient norm :     0.0037927 Eh/α   predicted    -0.1127453E-03 ( -21.84%)
   displ. norm   :     0.4350360 α      lambda       -0.1757231E-03
   maximum displ.:     0.2409232 α      in ANC's #3, #8, #1, ...

........................................................................
.............................. CYCLE   19 ..............................
........................................................................

 iter      E             dE          RMSdq      gap      omega  full diag
   1   -119.7332094 -0.119733E+03  0.745E-02    2.39       0.0  T
   2   -119.7332104 -0.990206E-06  0.434E-02    2.40       1.0  T
   3   -119.7332081  0.225610E-05  0.582E-03    2.40       1.9  T
   4   -119.7332106 -0.247815E-05  0.224E-03    2.40       5.0  T
   5   -119.7332108 -0.202657E-06  0.112E-03    2.40       9.9  T
   6   -119.7332109 -0.765591E-07  0.451E-04    2.40      24.6  T
   7   -119.7332109 -0.294678E-08  0.284E-04    2.40      39.1  T
     SCC iter.                  ...        0 min,  0.994 sec
     gradient                   ...        0 min,  0.124 sec
 * total energy  :  -117.7496709 Eh     change       -0.1247833E-03 Eh
   gradient norm :     0.0037373 Eh/α   predicted    -0.1044913E-03 ( -16.26%)
   displ. norm   :     0.3482376 α      lambda       -0.1513537E-03
   maximum displ.:     0.1964657 α      in ANC's #3, #8, #2, ...

........................................................................
.............................. CYCLE   20 ..............................
........................................................................

 iter      E             dE          RMSdq      gap      omega  full diag
   1   -119.7342044 -0.119734E+03  0.603E-02    2.39       0.0  T
   2   -119.7342053 -0.909533E-06  0.345E-02    2.39       1.0  T
   3   -119.7342040  0.134449E-05  0.562E-03    2.40       2.0  T
   4   -119.7342052 -0.124176E-05  0.280E-03    2.40       4.0  T
   5   -119.7342056 -0.401311E-06  0.100E-03    2.40      11.1  T
   6   -119.7342057 -0.879551E-07  0.293E-04    2.40      38.0  T
   7   -119.7342057 -0.173273E-08  0.165E-04    2.40      67.3  T
     SCC iter.                  ...        0 min,  0.814 sec
     gradient                   ...        0 min,  0.115 sec
 * total energy  :  -117.7497891 Eh     change       -0.1182071E-03 Eh
   gradient norm :     0.0036004 Eh/α   predicted    -0.8485699E-04 ( -28.21%)
   displ. norm   :     0.4236151 α      lambda       -0.1647547E-03
   maximum displ.:     0.2392314 α      in ANC's #3, #8, #2, ...
 * RMSD in coord.:     0.7681692 α      energy gain  -0.3559076E-01 Eh

generating ANC from exact Hessian ...
Using Lindh-Hessian (1995)
 Shifting diagonal of input Hessian by    9.8761247211685069E-003
 Lowest  eigenvalues of input Hessian
    0.000000    0.000000    0.000000    0.000000    0.000000    0.000000
    0.010000    0.010061    0.010126    0.010281    0.010363    0.010425
    0.010538    0.010617    0.010950    0.011067    0.011251    0.011588
 Highest eigenvalues
    2.014018    2.023212    2.025181    2.071838    2.114260    2.125432


........................................................................
.............................. CYCLE   21 ..............................
........................................................................

 iter      E             dE          RMSdq      gap      omega  full diag
   1   -119.7336163 -0.119734E+03  0.695E-02    2.40       0.0  T
   2   -119.7336175 -0.118033E-05  0.397E-02    2.40       1.0  T
   3   -119.7336160  0.150029E-05  0.616E-03    2.40       1.8  T
   4   -119.7336172 -0.123554E-05  0.330E-03    2.40       3.4  T
   5   -119.7336179 -0.667013E-06  0.100E-03    2.40      11.1  T
   6   -119.7336180 -0.760716E-07  0.417E-04    2.40      26.7  T
   7   -119.7336180 -0.404577E-08  0.248E-04    2.40      44.8  T
     SCC iter.                  ...        0 min,  0.996 sec
     gradient                   ...        0 min,  0.116 sec
 * total energy  :  -117.7499132 Eh     change       -0.1241375E-03 Eh
   gradient norm :     0.0031618 Eh/α   predicted     0.0000000E+00 (-100.00%)
   displ. norm   :     0.0520552 α      lambda       -0.4949707E-04
   maximum displ.:     0.0236169 α      in ANC's #3, #11, #6, ...

........................................................................
.............................. CYCLE   22 ..............................
........................................................................

 iter      E             dE          RMSdq      gap      omega  full diag
   1   -119.7349948 -0.119735E+03  0.120E-02    2.40       0.0  T
   2   -119.7349949 -0.123233E-06  0.681E-03    2.40       1.6  T
   3   -119.7349948  0.104246E-06  0.156E-03    2.40       7.1  T
   4   -119.7349950 -0.112834E-06  0.668E-04    2.40      16.6  T
   5   -119.7349950 -0.157032E-07  0.354E-04    2.40      31.4  T
     SCC iter.                  ...        0 min,  0.534 sec
     gradient                   ...        0 min,  0.112 sec
 * total energy  :  -117.7499553 Eh     change       -0.4210689E-04 Eh
   gradient norm :     0.0015764 Eh/α   predicted    -0.2519628E-04 ( -40.16%)
   displ. norm   :     0.2640367 α      lambda       -0.1135740E-03
   maximum displ.:     0.1221982 α      in ANC's #3, #11, #1, ...

........................................................................
.............................. CYCLE   23 ..............................
........................................................................

 iter      E             dE          RMSdq      gap      omega  full diag
   1   -119.7380352 -0.119738E+03  0.522E-02    2.41       0.0  T
   2   -119.7380370 -0.170946E-05  0.297E-02    2.41       1.0  T
   3   -119.7380358  0.115005E-05  0.547E-03    2.41       2.0  T
   4   -119.7380370 -0.116896E-05  0.240E-03    2.41       4.6  T
   5   -119.7380373 -0.296413E-06  0.118E-03    2.41       9.4  T
   6   -119.7380374 -0.787870E-07  0.508E-04    2.41      21.9  T
   7   -119.7380374 -0.104214E-07  0.223E-04    2.41      49.8  T
     SCC iter.                  ...        0 min,  1.137 sec
     gradient                   ...        0 min,  0.115 sec
 * total energy  :  -117.7500311 Eh     change       -0.7580499E-04 Eh
   gradient norm :     0.0042344 Eh/α   predicted    -0.5854777E-04 ( -22.77%)
   displ. norm   :     0.0688045 α      lambda       -0.4322217E-04
   maximum displ.:     0.0378833 α      in ANC's #3, #6, #8, ...

........................................................................
.............................. CYCLE   24 ..............................
........................................................................

 iter      E             dE          RMSdq      gap      omega  full diag
   1   -119.7372150 -0.119737E+03  0.187E-02    2.40       0.0  T
   2   -119.7372159 -0.874012E-06  0.882E-03    2.40       1.3  T
   3   -119.7372158  0.570659E-07  0.299E-03    2.40       3.7  T
   4   -119.7372159 -0.339378E-07  0.161E-03    2.40       6.9  T
   5   -119.7372160 -0.133153E-06  0.645E-04    2.40      17.2  T
   6   -119.7372160 -0.766008E-08  0.370E-04    2.40      30.0  T
     SCC iter.                  ...        0 min,  0.699 sec
     gradient                   ...        0 min,  0.115 sec
 * total energy  :  -117.7500616 Eh     change       -0.3045223E-04 Eh
   gradient norm :     0.0032569 Eh/α   predicted    -0.2172315E-04 ( -28.66%)
   displ. norm   :     0.1254177 α      lambda       -0.6766312E-04
   maximum displ.:     0.0704183 α      in ANC's #3, #1, #6, ...

........................................................................
.............................. CYCLE   25 ..............................
........................................................................

 iter      E             dE          RMSdq      gap      omega  full diag
   1   -119.7352526 -0.119735E+03  0.204E-02    2.40       0.0  T
   2   -119.7352529 -0.286745E-06  0.119E-02    2.40       1.0  T
   3   -119.7352527  0.196662E-06  0.225E-03    2.40       4.9  T
   4   -119.7352530 -0.253729E-06  0.727E-04    2.40      15.3  T
   5   -119.7352530 -0.756442E-08  0.396E-04    2.40      28.1  T
     SCC iter.                  ...        0 min,  0.713 sec
     gradient                   ...        0 min,  0.130 sec
 * total energy  :  -117.7501123 Eh     change       -0.5075887E-04 Eh
   gradient norm :     0.0014672 Eh/α   predicted    -0.3436848E-04 ( -32.29%)
   displ. norm   :     0.2704691 α      lambda       -0.5786207E-04
   maximum displ.:     0.1535578 α      in ANC's #3, #1, #6, ...

........................................................................
.............................. CYCLE   26 ..............................
........................................................................

 iter      E             dE          RMSdq      gap      omega  full diag
   1   -119.7334087 -0.119733E+03  0.415E-02    2.40       0.0  T
   2   -119.7334097 -0.102264E-05  0.239E-02    2.41       1.0  T
   3   -119.7334089  0.789792E-06  0.476E-03    2.41       2.3  T
   4   -119.7334099 -0.963151E-06  0.164E-03    2.41       6.8  T
   5   -119.7334100 -0.536832E-07  0.913E-04    2.41      12.2  T
   6   -119.7334100 -0.499813E-07  0.398E-04    2.41      27.9  T
     SCC iter.                  ...        0 min,  0.867 sec
     gradient                   ...        0 min,  0.115 sec
 * total energy  :  -117.7501658 Eh     change       -0.5345951E-04 Eh
   gradient norm :     0.0033540 Eh/α   predicted    -0.2987767E-04 ( -44.11%)
   displ. norm   :     0.1169781 α      lambda       -0.3232951E-04
   maximum displ.:     0.0694949 α      in ANC's #3, #1, #6, ...

........................................................................
.............................. CYCLE   27 ..............................
........................................................................

 iter      E             dE          RMSdq      gap      omega  full diag
   1   -119.7341291 -0.119734E+03  0.164E-02    2.41       0.0  T
   2   -119.7341292 -0.102191E-06  0.935E-03    2.41       1.2  T
   3   -119.7341291  0.503468E-07  0.152E-03    2.41       7.3  T
   4   -119.7341292 -0.374402E-07  0.827E-04    2.41      13.4  T
   5   -119.7341292 -0.374787E-07  0.345E-04    2.41      32.2  T
     SCC iter.                  ...        0 min,  0.575 sec
     gradient                   ...        0 min,  0.120 sec
 * total energy  :  -117.7501942 Eh     change       -0.2844036E-04 Eh
   gradient norm :     0.0026563 Eh/α   predicted    -0.1638658E-04 ( -42.38%)
   displ. norm   :     0.2156466 α      lambda       -0.6088857E-04
   maximum displ.:     0.1288794 α      in ANC's #3, #1, #6, ...

........................................................................
.............................. CYCLE   28 ..............................
........................................................................

 iter      E             dE          RMSdq      gap      omega  full diag
   1   -119.7359200 -0.119736E+03  0.300E-02    2.41       0.0  T
   2   -119.7359204 -0.492069E-06  0.166E-02    2.41       1.0  T
   3   -119.7359200  0.407160E-06  0.377E-03    2.41       2.9  T
   4   -119.7359205 -0.413063E-06  0.180E-03    2.41       6.2  T
   5   -119.7359206 -0.126875E-06  0.529E-04    2.41      21.0  T
   6   -119.7359206 -0.165529E-07  0.239E-04    2.41      46.5  T
     SCC iter.                  ...        0 min,  0.768 sec
     gradient                   ...        0 min,  0.120 sec
 * total energy  :  -117.7502410 Eh     change       -0.4675705E-04 Eh
   gradient norm :     0.0011102 Eh/α   predicted    -0.3186154E-04 ( -31.86%)
   displ. norm   :     0.3475214 α      lambda       -0.4306712E-04
   maximum displ.:     0.2107887 α      in ANC's #3, #1, #6, ...

........................................................................
.............................. CYCLE   29 ..............................
........................................................................

 iter      E             dE          RMSdq      gap      omega  full diag
   1   -119.7368175 -0.119737E+03  0.434E-02    2.41       0.0  T
   2   -119.7368181 -0.604676E-06  0.248E-02    2.41       1.0  T
   3   -119.7368174  0.729002E-06  0.436E-03    2.41       2.6  T
   4   -119.7368181 -0.755396E-06  0.200E-03    2.41       5.6  T
   5   -119.7368183 -0.182921E-06  0.622E-04    2.41      17.9  T
   6   -119.7368184 -0.240579E-07  0.316E-04    2.41      35.1  T
     SCC iter.                  ...        0 min,  0.742 sec
     gradient                   ...        0 min,  0.120 sec
 * total energy  :  -117.7502849 Eh     change       -0.4393411E-04 Eh
   gradient norm :     0.0020956 Eh/α   predicted    -0.2269025E-04 ( -48.35%)
   displ. norm   :     0.1269995 α      lambda       -0.2203730E-04
   maximum displ.:     0.0788750 α      in ANC's #3, #1, #4, ...

........................................................................
.............................. CYCLE   30 ..............................
........................................................................

 iter      E             dE          RMSdq      gap      omega  full diag
   1   -119.7368254 -0.119737E+03  0.158E-02    2.41       0.0  T
   2   -119.7368255 -0.109686E-06  0.896E-03    2.41       1.2  T
   3   -119.7368254  0.154948E-06  0.191E-03    2.41       5.8  T
   4   -119.7368256 -0.172124E-06  0.796E-04    2.41      14.0  T
   5   -119.7368256 -0.190034E-07  0.299E-04    2.41      37.1  T
     SCC iter.                  ...        0 min,  0.579 sec
     gradient                   ...        0 min,  0.115 sec
 * total energy  :  -117.7503044 Eh     change       -0.1953201E-04 Eh
   gradient norm :     0.0017247 Eh/α   predicted    -0.1120070E-04 ( -42.65%)
   displ. norm   :     0.2523531 α      lambda       -0.3412503E-04
   maximum displ.:     0.1555118 α      in ANC's #3, #1, #4, ...

........................................................................
.............................. CYCLE   31 ..............................
........................................................................

 iter      E             dE          RMSdq      gap      omega  full diag
   1   -119.7363118 -0.119736E+03  0.320E-02    2.41       0.0  T
   2   -119.7363121 -0.281430E-06  0.187E-02    2.41       1.0  T
   3   -119.7363117  0.390486E-06  0.273E-03    2.41       4.1  T
   4   -119.7363122 -0.489471E-06  0.821E-04    2.41      13.5  T
   5   -119.7363122 -0.131086E-07  0.347E-04    2.41      32.0  T
     SCC iter.                  ...        0 min,  0.535 sec
     gradient                   ...        0 min,  0.116 sec
 * total energy  :  -117.7503421 Eh     change       -0.3767577E-04 Eh
   gradient norm :     0.0009904 Eh/α   predicted    -0.1754752E-04 ( -53.42%)
   displ. norm   :     0.1944728 α      lambda       -0.1869270E-04
   maximum displ.:     0.1209415 α      in ANC's #3, #1, #4, ...

........................................................................
.............................. CYCLE   32 ..............................
........................................................................

 iter      E             dE          RMSdq      gap      omega  full diag
   1   -119.7354664 -0.119735E+03  0.253E-02    2.41       0.0  T
   2   -119.7354665 -0.172578E-06  0.146E-02    2.40       1.0  T
   3   -119.7354664  0.979400E-07  0.180E-03    2.40       6.2  T
   4   -119.7354666 -0.130044E-06  0.799E-04    2.40      13.9  T
   5   -119.7354666 -0.218389E-07  0.275E-04    2.40      40.4  T
     SCC iter.                  ...        0 min,  0.533 sec
     gradient                   ...        0 min,  0.116 sec
 * total energy  :  -117.7503635 Eh     change       -0.2141680E-04 Eh
   gradient norm :     0.0009697 Eh/α   predicted    -0.9505129E-05 ( -55.62%)
   displ. norm   :     0.1496289 α      lambda       -0.1450353E-04
   maximum displ.:     0.0911793 α      in ANC's #3, #1, #12, ...

........................................................................
.............................. CYCLE   33 ..............................
........................................................................

 iter      E             dE          RMSdq      gap      omega  full diag
   1   -119.7357355 -0.119736E+03  0.201E-02    2.40       0.0  T
   2   -119.7357357 -0.122895E-06  0.116E-02    2.40       1.0  T
   3   -119.7357356  0.984393E-07  0.169E-03    2.40       6.6  T
   4   -119.7357357 -0.119783E-06  0.659E-04    2.40      16.9  T
   5   -119.7357357 -0.151147E-07  0.291E-04    2.40      38.2  T
     SCC iter.                  ...        0 min,  0.544 sec
     gradient                   ...        0 min,  0.115 sec
 * total energy  :  -117.7503806 Eh     change       -0.1710822E-04 Eh
   gradient norm :     0.0011017 Eh/α   predicted    -0.7326029E-05 ( -57.18%)
   displ. norm   :     0.1592718 α      lambda       -0.1535789E-04
   maximum displ.:     0.0984735 α      in ANC's #3, #1, #7, ...

........................................................................
.............................. CYCLE   34 ..............................
........................................................................

 iter      E             dE          RMSdq      gap      omega  full diag
   1   -119.7355352 -0.119736E+03  0.187E-02    2.40       0.0  T
   2   -119.7355353 -0.108892E-06  0.109E-02    2.40       1.0  T
   3   -119.7355353  0.444751E-07  0.127E-03    2.40       8.7  T
   4   -119.7355353 -0.619987E-07  0.595E-04    2.40      18.7  T
   5   -119.7355354 -0.129639E-07  0.249E-04    2.40      44.7  T
     SCC iter.                  ...        0 min,  0.648 sec
     gradient                   ...        0 min,  0.118 sec
 * total energy  :  -117.7503986 Eh     change       -0.1795415E-04 Eh
   gradient norm :     0.0005951 Eh/α   predicted    -0.7768254E-05 ( -56.73%)
   displ. norm   :     0.1604911 α      lambda       -0.1424201E-04
   maximum displ.:     0.0975654 α      in ANC's #3, #1, #7, ...

........................................................................
.............................. CYCLE   35 ..............................
........................................................................

 iter      E             dE          RMSdq      gap      omega  full diag
   1   -119.7355429 -0.119736E+03  0.166E-02    2.40       0.0  T
   2   -119.7355430 -0.874690E-07  0.954E-03    2.40       1.2  T
   3   -119.7355429  0.529595E-07  0.141E-03    2.40       7.9  T
   4   -119.7355430 -0.628927E-07  0.701E-04    2.40      15.9  T
   5   -119.7355430 -0.178932E-07  0.256E-04    2.40      43.4  T
     SCC iter.                  ...        0 min,  0.630 sec
     gradient                   ...        0 min,  0.121 sec
 * total energy  :  -117.7504152 Eh     change       -0.1662636E-04 Eh
   gradient norm :     0.0005582 Eh/α   predicted    -0.7203634E-05 ( -56.67%)
   displ. norm   :     0.1584984 α      lambda       -0.1262274E-04
   maximum displ.:     0.0975625 α      in ANC's #1, #3, #8, ...

........................................................................
.............................. CYCLE   36 ..............................
........................................................................

 iter      E             dE          RMSdq      gap      omega  full diag
   1   -119.7356803 -0.119736E+03  0.144E-02    2.41       0.0  T
   2   -119.7356804 -0.701700E-07  0.829E-03    2.41       1.3  T
   3   -119.7356803  0.526449E-07  0.124E-03    2.41       8.9  T
   4   -119.7356804 -0.640006E-07  0.607E-04    2.41      18.3  T
   5   -119.7356804 -0.131313E-07  0.267E-04    2.41      41.6  T
     SCC iter.                  ...        0 min,  0.614 sec
     gradient                   ...        0 min,  0.128 sec
 * total energy  :  -117.7504295 Eh     change       -0.1423614E-04 Eh
   gradient norm :     0.0006294 Eh/α   predicted    -0.6384641E-05 ( -55.15%)
   displ. norm   :     0.1309936 α      lambda       -0.8849682E-05
   maximum displ.:     0.0828563 α      in ANC's #1, #3, #8, ...

........................................................................
.............................. CYCLE   37 ..............................
........................................................................

 iter      E             dE          RMSdq      gap      omega  full diag
   1   -119.7357306 -0.119736E+03  0.122E-02    2.41       0.0  T
   2   -119.7357307 -0.759734E-07  0.690E-03    2.41       1.6  T
   3   -119.7357306  0.689489E-07  0.133E-03    2.41       8.4  T
   4   -119.7357307 -0.863433E-07  0.491E-04    2.41      22.6  T
   5   -119.7357307 -0.601351E-08  0.227E-04    2.41      48.9  T
     SCC iter.                  ...        0 min,  0.644 sec
     gradient                   ...        0 min,  0.139 sec
 * total energy  :  -117.7504389 Eh     change       -0.9478173E-05 Eh
   gradient norm :     0.0005919 Eh/α   predicted    -0.4462152E-05 ( -52.92%)
   displ. norm   :     0.0868902 α      lambda       -0.5048071E-05
   maximum displ.:     0.0565455 α      in ANC's #1, #3, #10, ...

........................................................................
.............................. CYCLE   38 ..............................
........................................................................

 iter      E             dE          RMSdq      gap      omega  full diag
   1   -119.7359018 -0.119736E+03  0.955E-03    2.41       0.0  T
   2   -119.7359019 -0.539396E-07  0.532E-03    2.41       2.1  T
   3   -119.7359018  0.376687E-07  0.112E-03    2.41       9.9  T
   4   -119.7359019 -0.433893E-07  0.508E-04    2.41      21.9  T
   5   -119.7359019 -0.656217E-08  0.257E-04    2.41      43.3  T
     SCC iter.                  ...        0 min,  0.612 sec
     gradient                   ...        0 min,  0.118 sec
 * total energy  :  -117.7504443 Eh     change       -0.5370281E-05 Eh
   gradient norm :     0.0003243 Eh/α   predicted    -0.2533644E-05 ( -52.82%)
   displ. norm   :     0.0624820 α      lambda       -0.3437514E-05
   maximum displ.:     0.0414614 α      in ANC's #1, #3, #11, ...

........................................................................
.............................. CYCLE   39 ..............................
........................................................................

 iter      E             dE          RMSdq      gap      omega  full diag
   1   -119.7359972 -0.119736E+03  0.773E-03    2.41       0.0  T
   2   -119.7359972 -0.326378E-07  0.432E-03    2.41       2.6  T
   3   -119.7359972  0.345176E-07  0.948E-04    2.41      11.7  T
   4   -119.7359972 -0.422066E-07  0.346E-04    2.41      32.1  T
     SCC iter.                  ...        0 min,  0.469 sec
     gradient                   ...        0 min,  0.116 sec
 * total energy  :  -117.7504483 Eh     change       -0.4025718E-05 Eh
   gradient norm :     0.0002479 Eh/α   predicted    -0.1724322E-05 ( -57.17%)
   displ. norm   :     0.0673021 α      lambda       -0.3907533E-05
   maximum displ.:     0.0431320 α      in ANC's #1, #3, #2, ...

........................................................................
.............................. CYCLE   40 ..............................
........................................................................

 iter      E             dE          RMSdq      gap      omega  full diag
   1   -119.7359936 -0.119736E+03  0.848E-03    2.41       0.0  T
   2   -119.7359936 -0.342007E-07  0.466E-03    2.41       2.4  T
   3   -119.7359936  0.330158E-07  0.103E-03    2.41      10.8  T
   4   -119.7359936 -0.367210E-07  0.471E-04    2.41      23.6  T
   5   -119.7359936 -0.745878E-08  0.123E-04    2.41      90.5  T
     SCC iter.                  ...        0 min,  0.698 sec
     gradient                   ...        0 min,  0.115 sec
 * total energy  :  -117.7504532 Eh     change       -0.4838883E-05 Eh
   gradient norm :     0.0003474 Eh/α   predicted    -0.1959415E-05 ( -59.51%)
   displ. norm   :     0.1002411 α      lambda       -0.5545454E-05
   maximum displ.:     0.0633491 α      in ANC's #1, #3, #2, ...

........................................................................
.............................. CYCLE   41 ..............................
........................................................................

 iter      E             dE          RMSdq      gap      omega  full diag
   1   -119.7359230 -0.119736E+03  0.111E-02    2.41       0.0  T
   2   -119.7359230 -0.741008E-07  0.613E-03    2.41       1.8  T
   3   -119.7359230  0.618393E-07  0.149E-03    2.41       7.5  T
   4   -119.7359230 -0.713483E-07  0.657E-04    2.41      16.9  T
   5   -119.7359231 -0.134669E-07  0.165E-04    2.41      67.2  T
     SCC iter.                  ...        0 min,  0.577 sec
     gradient                   ...        0 min,  0.113 sec
 * total energy  :  -117.7504598 Eh     change       -0.6615875E-05 Eh
   gradient norm :     0.0004489 Eh/α   predicted    -0.2788779E-05 ( -57.85%)
   displ. norm   :     0.1189172 α      lambda       -0.5641379E-05
   maximum displ.:     0.0761394 α      in ANC's #1, #3, #2, ...

........................................................................
.............................. CYCLE   42 ..............................
........................................................................

 iter      E             dE          RMSdq      gap      omega  full diag
   1   -119.7358911 -0.119736E+03  0.124E-02    2.41       0.0  T
   2   -119.7358912 -0.108192E-06  0.664E-03    2.41       1.7  T
   3   -119.7358912  0.472163E-07  0.165E-03    2.41       6.7  T
   4   -119.7358912 -0.517061E-07  0.829E-04    2.41      13.4  T
   5   -119.7358912 -0.249553E-07  0.176E-04    2.41      63.0  T
     SCC iter.                  ...        0 min,  0.446 sec
     gradient                   ...        0 min,  0.114 sec
 * total energy  :  -117.7504664 Eh     change       -0.6648097E-05 Eh
   gradient norm :     0.0004191 Eh/α   predicted    -0.2842049E-05 ( -57.25%)
   displ. norm   :     0.1233469 α      lambda       -0.5138374E-05
   maximum displ.:     0.0807936 α      in ANC's #1, #3, #2, ...
 * RMSD in coord.:     0.3046474 α      energy gain  -0.6773779E-03 Eh

generating ANC from exact Hessian ...
Using Lindh-Hessian (1995)
 Shifting diagonal of input Hessian by    9.8694019868613928E-003
 Lowest  eigenvalues of input Hessian
    0.000000    0.000000    0.000000    0.000000    0.000000    0.000000
    0.010000    0.010069    0.010119    0.010269    0.010367    0.010441
    0.010545    0.010621    0.010932    0.011084    0.011249    0.011576
 Highest eigenvalues
    2.015457    2.023466    2.026602    2.072808    2.114091    2.125730


........................................................................
.............................. CYCLE   43 ..............................
........................................................................

 iter      E             dE          RMSdq      gap      omega  full diag
   1   -119.7358243 -0.119736E+03  0.117E-02    2.41       0.0  T
   2   -119.7358244 -0.920510E-07  0.641E-03    2.41       1.7  T
   3   -119.7358243  0.472250E-07  0.149E-03    2.41       7.4  T
   4   -119.7358244 -0.514237E-07  0.708E-04    2.41      15.7  T
   5   -119.7358244 -0.189356E-07  0.233E-04    2.41      47.6  T
     SCC iter.                  ...        0 min,  0.546 sec
     gradient                   ...        0 min,  0.119 sec
 * total energy  :  -117.7504727 Eh     change       -0.6214011E-05 Eh
   gradient norm :     0.0003138 Eh/α   predicted     0.0000000E+00 (-100.00%)
   displ. norm   :     0.0164965 α      lambda       -0.1144631E-06
   maximum displ.:     0.0088965 α      in ANC's #2, #1, #26, ...

........................................................................
.............................. CYCLE   44 ..............................
........................................................................

 iter      E             dE          RMSdq      gap      omega  full diag
   1   -119.7360183 -0.119736E+03  0.313E-03    2.41       0.0  T
   2   -119.7360183 -0.529013E-08  0.174E-03    2.41       6.4  T
   3   -119.7360183  0.181033E-08  0.329E-04    2.41      33.8  T
   4   -119.7360183 -0.161189E-08  0.166E-04    2.41      66.9  T
     SCC iter.                  ...        0 min,  0.459 sec
     gradient                   ...        0 min,  0.119 sec
 * total energy  :  -117.7504749 Eh     change       -0.2218075E-05 Eh
   gradient norm :     0.0001857 Eh/α   predicted    -0.8338558E-06 ( -62.41%)
   displ. norm   :     0.0643676 α      lambda       -0.5241418E-05
   maximum displ.:     0.0334170 α      in ANC's #2, #1, #12, ...

........................................................................
.............................. CYCLE   45 ..............................
........................................................................

 iter      E             dE          RMSdq      gap      omega  full diag
   1   -119.7361152 -0.119736E+03  0.110E-02    2.41       0.0  T
   2   -119.7361153 -0.490729E-07  0.621E-03    2.41       1.8  T
   3   -119.7361152  0.480108E-07  0.121E-03    2.41       9.2  T
   4   -119.7361153 -0.508695E-07  0.540E-04    2.41      20.6  T
   5   -119.7361153 -0.997416E-08  0.214E-04    2.41      51.8  T
     SCC iter.                  ...        0 min,  0.621 sec
     gradient                   ...        0 min,  0.118 sec
 * total energy  :  -117.7504804 Eh     change       -0.5488699E-05 Eh
   gradient norm :     0.0003661 Eh/α   predicted    -0.2626089E-05 ( -52.15%)
   displ. norm   :     0.0576023 α      lambda       -0.2888537E-05
   maximum displ.:     0.0326288 α      in ANC's #2, #1, #12, ...

........................................................................
.............................. CYCLE   46 ..............................
........................................................................

 iter      E             dE          RMSdq      gap      omega  full diag
   1   -119.7359764 -0.119736E+03  0.104E-02    2.41       0.0  T
   2   -119.7359765 -0.100044E-06  0.531E-03    2.41       2.1  T
   3   -119.7359765  0.398880E-08  0.136E-03    2.41       8.2  T
   4   -119.7359765 -0.119697E-08  0.673E-04    2.41      16.5  T
   5   -119.7359765 -0.182027E-07  0.182E-04    2.41      61.1  T
     SCC iter.                  ...        0 min,  0.551 sec
     gradient                   ...        0 min,  0.116 sec
 * total energy  :  -117.7504833 Eh     change       -0.2950215E-05 Eh
   gradient norm :     0.0004010 Eh/α   predicted    -0.1446842E-05 ( -50.96%)
   displ. norm   :     0.0539128 α      lambda       -0.2725358E-05
   maximum displ.:     0.0317906 α      in ANC's #2, #1, #12, ...

........................................................................
.............................. CYCLE   47 ..............................
........................................................................

 iter      E             dE          RMSdq      gap      omega  full diag
   1   -119.7359344 -0.119736E+03  0.800E-03    2.41       0.0  T
   2   -119.7359344 -0.536142E-07  0.460E-03    2.41       2.4  T
   3   -119.7359344  0.460858E-07  0.101E-03    2.41      11.0  T
   4   -119.7359344 -0.428375E-07  0.482E-04    2.41      23.1  T
   5   -119.7359344 -0.140537E-07  0.187E-04    2.41      59.4  T
     SCC iter.                  ...        0 min,  0.513 sec
     gradient                   ...        0 min,  0.120 sec
 * total energy  :  -117.7504862 Eh     change       -0.2869556E-05 Eh
   gradient norm :     0.0004260 Eh/α   predicted    -0.1367434E-05 ( -52.35%)
   displ. norm   :     0.0598464 α      lambda       -0.3554013E-05
   maximum displ.:     0.0367374 α      in ANC's #2, #1, #5, ...

........................................................................
.............................. CYCLE   48 ..............................
........................................................................

 iter      E             dE          RMSdq      gap      omega  full diag
   1   -119.7360175 -0.119736E+03  0.992E-03    2.41       0.0  T
   2   -119.7360175 -0.440285E-07  0.550E-03    2.41       2.0  T
   3   -119.7360175  0.169141E-07  0.101E-03    2.41      11.0  T
   4   -119.7360175 -0.445509E-08  0.568E-04    2.41      19.5  T
   5   -119.7360175 -0.231424E-07  0.115E-04    2.41      96.5  T
     SCC iter.                  ...        0 min,  0.660 sec
     gradient                   ...        0 min,  0.122 sec
 * total energy  :  -117.7504909 Eh     change       -0.4686028E-05 Eh
   gradient norm :     0.0003101 Eh/α   predicted    -0.1780769E-05 ( -62.00%)
   displ. norm   :     0.1055635 α      lambda       -0.6308122E-05
   maximum displ.:     0.0653857 α      in ANC's #2, #1, #5, ...

........................................................................
.............................. CYCLE   49 ..............................
........................................................................

 iter      E             dE          RMSdq      gap      omega  full diag
   1   -119.7358950 -0.119736E+03  0.182E-02    2.41       0.0  T
   2   -119.7358951 -0.128992E-06  0.100E-02    2.41       1.1  T
   3   -119.7358951  0.446855E-07  0.177E-03    2.41       6.3  T
   4   -119.7358951 -0.448772E-08  0.102E-03    2.41      10.9  T
   5   -119.7358951 -0.696044E-07  0.233E-04    2.41      47.6  T
   6   -119.7358951 -0.276415E-08  0.128E-04    2.41      87.0  T
     SCC iter.                  ...        0 min,  0.737 sec
     gradient                   ...        0 min,  0.117 sec
 * total energy  :  -117.7504987 Eh     change       -0.7846029E-05 Eh
   gradient norm :     0.0003920 Eh/α   predicted    -0.3173733E-05 ( -59.55%)
   displ. norm   :     0.1330111 α      lambda       -0.6330065E-05
   maximum displ.:     0.0840848 α      in ANC's #2, #1, #5, ...

........................................................................
.............................. CYCLE   50 ..............................
........................................................................

 iter      E             dE          RMSdq      gap      omega  full diag
   1   -119.7358078 -0.119736E+03  0.205E-02    2.41       0.0  T
   2   -119.7358080 -0.162742E-06  0.113E-02    2.41       1.0  T
   3   -119.7358079  0.873516E-07  0.208E-03    2.41       5.3  T
   4   -119.7358079 -0.258980E-07  0.122E-03    2.41       9.1  T
   5   -119.7358080 -0.990994E-07  0.331E-04    2.41      33.6  T
   6   -119.7358080 -0.743651E-08  0.143E-04    2.41      77.9  T
     SCC iter.                  ...        0 min,  0.705 sec
     gradient                   ...        0 min,  0.116 sec
 * total energy  :  -117.7505067 Eh     change       -0.8009510E-05 Eh
   gradient norm :     0.0004846 Eh/α   predicted    -0.3193362E-05 ( -60.13%)
   displ. norm   :     0.1325377 α      lambda       -0.5894120E-05
   maximum displ.:     0.0853061 α      in ANC's #2, #1, #5, ...

........................................................................
.............................. CYCLE   51 ..............................
........................................................................

 iter      E             dE          RMSdq      gap      omega  full diag
   1   -119.7358236 -0.119736E+03  0.180E-02    2.41       0.0  T
   2   -119.7358237 -0.147541E-06  0.982E-03    2.41       1.1  T
   3   -119.7358236  0.998684E-07  0.210E-03    2.41       5.3  T
   4   -119.7358237 -0.510071E-07  0.117E-03    2.41       9.5  T
   5   -119.7358238 -0.808503E-07  0.375E-04    2.41      29.6  T
   6   -119.7358238 -0.115192E-07  0.120E-04    2.41      92.9  T
     SCC iter.                  ...        0 min,  0.883 sec
     gradient                   ...        0 min,  0.115 sec
 * total energy  :  -117.7505148 Eh     change       -0.8033528E-05 Eh
   gradient norm :     0.0004716 Eh/α   predicted    -0.2971326E-05 ( -63.01%)
   displ. norm   :     0.1477562 α      lambda       -0.7360162E-05
   maximum displ.:     0.0960057 α      in ANC's #1, #2, #5, ...

........................................................................
.............................. CYCLE   52 ..............................
........................................................................

 iter      E             dE          RMSdq      gap      omega  full diag
   1   -119.7358401 -0.119736E+03  0.181E-02    2.41       0.0  T
   2   -119.7358403 -0.174902E-06  0.974E-03    2.41       1.1  T
   3   -119.7358402  0.746437E-07  0.211E-03    2.41       5.3  T
   4   -119.7358402 -0.243084E-07  0.121E-03    2.41       9.2  T
   5   -119.7358403 -0.842020E-07  0.389E-04    2.41      28.5  T
   6   -119.7358403 -0.115876E-07  0.133E-04    2.41      83.7  T
     SCC iter.                  ...        0 min,  0.876 sec
     gradient                   ...        0 min,  0.119 sec
 * total energy  :  -117.7505252 Eh     change       -0.1041001E-04 Eh
   gradient norm :     0.0004008 Eh/α   predicted    -0.3718103E-05 ( -64.28%)
   displ. norm   :     0.2348263 α      lambda       -0.1270246E-04
   maximum displ.:     0.1537723 α      in ANC's #1, #2, #5, ...

........................................................................
.............................. CYCLE   53 ..............................
........................................................................

 iter      E             dE          RMSdq      gap      omega  full diag
   1   -119.7357741 -0.119736E+03  0.268E-02    2.41       0.0  T
   2   -119.7357745 -0.447269E-06  0.143E-02    2.41       1.0  T
   3   -119.7357743  0.231573E-06  0.350E-03    2.41       3.2  T
   4   -119.7357745 -0.151560E-06  0.184E-03    2.41       6.0  T
   5   -119.7357746 -0.161653E-06  0.702E-04    2.41      15.8  T
   6   -119.7357747 -0.403987E-07  0.215E-04    2.41      51.7  T
     SCC iter.                  ...        0 min,  0.702 sec
     gradient                   ...        0 min,  0.123 sec
 * total energy  :  -117.7505430 Eh     change       -0.1785022E-04 Eh
   gradient norm :     0.0005090 Eh/α   predicted    -0.6510000E-05 ( -63.53%)
   displ. norm   :     0.3778386 α      lambda       -0.2049149E-04
   maximum displ.:     0.2472191 α      in ANC's #1, #2, #5, ...

........................................................................
.............................. CYCLE   54 ..............................
........................................................................

 iter      E             dE          RMSdq      gap      omega  full diag
   1   -119.7354959 -0.119735E+03  0.425E-02    2.41       0.0  T
   2   -119.7354969 -0.995900E-06  0.227E-02    2.41       1.0  T
   3   -119.7354966  0.285458E-06  0.489E-03    2.41       2.3  T
   4   -119.7354967 -0.118985E-07  0.278E-03    2.41       4.0  T
   5   -119.7354971 -0.464259E-06  0.866E-04    2.41      12.8  T
   6   -119.7354972 -0.556101E-07  0.317E-04    2.41      35.0  T
     SCC iter.                  ...        0 min,  0.901 sec
     gradient                   ...        0 min,  0.116 sec
 * total energy  :  -117.7505715 Eh     change       -0.2852071E-04 Eh
   gradient norm :     0.0008319 Eh/α   predicted    -0.1090029E-04 ( -61.78%)
   displ. norm   :     0.6812986 α      lambda       -0.3534552E-04
   maximum displ.:     0.4467499 α      in ANC's #1, #2, #5, ...

........................................................................
.............................. CYCLE   55 ..............................
........................................................................

 iter      E             dE          RMSdq      gap      omega  full diag
   1   -119.7341443 -0.119734E+03  0.758E-02    2.40       0.0  T
   2   -119.7341476 -0.329006E-05  0.405E-02    2.40       1.0  T
   3   -119.7341465  0.108305E-05  0.902E-03    2.40       1.2  T
   4   -119.7341469 -0.375416E-06  0.490E-03    2.40       2.3  T
   5   -119.7341482 -0.131769E-05  0.168E-03    2.40       6.6  T
   6   -119.7341484 -0.217258E-06  0.587E-04    2.40      18.9  T
   7   -119.7341484 -0.123266E-07  0.321E-04    2.40      34.6  T
     SCC iter.                  ...        0 min,  1.125 sec
     gradient                   ...        0 min,  0.120 sec
 * total energy  :  -117.7506183 Eh     change       -0.4676037E-04 Eh
   gradient norm :     0.0014617 Eh/α   predicted    -0.2131924E-04 ( -54.41%)
   displ. norm   :     0.6499919 α      lambda       -0.3318559E-04
   maximum displ.:     0.4275690 α      in ANC's #1, #2, #5, ...

........................................................................
.............................. CYCLE   56 ..............................
........................................................................

 iter      E             dE          RMSdq      gap      omega  full diag
   1   -119.7335846 -0.119734E+03  0.711E-02    2.40       0.0  T
   2   -119.7335873 -0.264062E-05  0.381E-02    2.40       1.0  T
   3   -119.7335866  0.668519E-06  0.794E-03    2.40       1.4  T
   4   -119.7335866 -0.539230E-07  0.436E-03    2.40       2.5  T
   5   -119.7335878 -0.114131E-05  0.134E-03    2.40       8.3  T
   6   -119.7335879 -0.130513E-06  0.522E-04    2.40      21.3  T
   7   -119.7335879 -0.973368E-08  0.279E-04    2.40      39.9  T
     SCC iter.                  ...        0 min,  0.841 sec
     gradient                   ...        0 min,  0.124 sec
 * total energy  :  -117.7506620 Eh     change       -0.4372869E-04 Eh
   gradient norm :     0.0016554 Eh/α   predicted    -0.1971198E-04 ( -54.92%)
   displ. norm   :     0.5821165 α      lambda       -0.3366752E-04
   maximum displ.:     0.3858252 α      in ANC's #1, #2, #5, ...

........................................................................
.............................. CYCLE   57 ..............................
........................................................................

 iter      E             dE          RMSdq      gap      omega  full diag
   1   -119.7344229 -0.119734E+03  0.629E-02    2.40       0.0  T
   2   -119.7344249 -0.199951E-05  0.339E-02    2.40       1.0  T
   3   -119.7344242  0.639769E-06  0.714E-03    2.40       1.6  T
   4   -119.7344246 -0.334571E-06  0.370E-03    2.40       3.0  T
   5   -119.7344253 -0.733991E-06  0.118E-03    2.40       9.4  T
   6   -119.7344254 -0.100884E-06  0.469E-04    2.40      23.7  T
   7   -119.7344254 -0.720567E-08  0.261E-04    2.40      42.6  T
     SCC iter.                  ...        0 min,  0.971 sec
     gradient                   ...        0 min,  0.116 sec
 * total energy  :  -117.7507065 Eh     change       -0.4446144E-04 Eh
   gradient norm :     0.0012979 Eh/α   predicted    -0.1937430E-04 ( -56.42%)
   displ. norm   :     0.5559501 α      lambda       -0.3407801E-04
   maximum displ.:     0.3728371 α      in ANC's #1, #2, #5, ...

........................................................................
.............................. CYCLE   58 ..............................
........................................................................

 iter      E             dE          RMSdq      gap      omega  full diag
   1   -119.7353489 -0.119735E+03  0.595E-02    2.40       0.0  T
   2   -119.7353505 -0.166919E-05  0.323E-02    2.40       1.0  T
   3   -119.7353499  0.598906E-06  0.659E-03    2.40       1.7  T
   4   -119.7353504 -0.425421E-06  0.336E-03    2.40       3.3  T
   5   -119.7353509 -0.571895E-06  0.100E-03    2.40      11.1  T
   6   -119.7353510 -0.667909E-07  0.438E-04    2.40      25.3  T
   7   -119.7353510 -0.540821E-08  0.251E-04    2.40      44.2  T
     SCC iter.                  ...        0 min,  1.070 sec
     gradient                   ...        0 min,  0.117 sec
 * total energy  :  -117.7507504 Eh     change       -0.4392028E-04 Eh
   gradient norm :     0.0008180 Eh/α   predicted    -0.1938396E-04 ( -55.87%)
   displ. norm   :     0.4842647 α      lambda       -0.2747008E-04
   maximum displ.:     0.3302511 α      in ANC's #1, #2, #5, ...

........................................................................
.............................. CYCLE   59 ..............................
........................................................................

 iter      E             dE          RMSdq      gap      omega  full diag
   1   -119.7357536 -0.119736E+03  0.521E-02    2.40       0.0  T
   2   -119.7357548 -0.126662E-05  0.283E-02    2.40       1.0  T
   3   -119.7357543  0.566919E-06  0.586E-03    2.40       1.9  T
   4   -119.7357548 -0.552202E-06  0.280E-03    2.40       4.0  T
   5   -119.7357552 -0.350846E-06  0.771E-04    2.40      14.4  T
   6   -119.7357552 -0.335856E-07  0.366E-04    2.40      30.4  T
     SCC iter.                  ...        0 min,  0.754 sec
     gradient                   ...        0 min,  0.124 sec
 * total energy  :  -117.7507843 Eh     change       -0.3384807E-04 Eh
   gradient norm :     0.0006059 Eh/α   predicted    -0.1517021E-04 ( -55.18%)
   displ. norm   :     0.2789020 α      lambda       -0.1418163E-04
   maximum displ.:     0.1961470 α      in ANC's #1, #2, #9, ...

........................................................................
[...]
     2   7 N        2.684    -0.133    23.882     7.258
     3   6 C        3.198     0.051    26.338     8.365
     4   6 C        2.914    -0.049    29.220     8.864
     5   6 C        2.919    -0.035    28.868     8.811
     6   6 C        2.986     0.012    27.728     8.638
     7   6 C        2.919    -0.031    28.762     8.795
     8   6 C        2.915    -0.021    28.538     8.760
     9   6 C        2.917    -0.022    28.551     8.762
    10   6 C        2.917    -0.032    28.790     8.799
    11   6 C        2.988     0.011    27.765     8.644
    12   6 C        2.979    -0.008    28.218     8.714
    13   6 C        2.978    -0.010    28.263     8.721
    14   6 C        3.084     0.054    26.688     8.469
    15   6 C        2.916    -0.048    29.182     8.858
    16   6 C        2.918    -0.033    28.816     8.803
    17   6 C        2.986     0.012    27.737     8.639
    18   6 C        2.919    -0.031    28.775     8.797
    19   6 C        2.915    -0.023    28.583     8.767
    20   6 C        2.917    -0.024    28.596     8.769
    21   6 C        2.917    -0.033    28.828     8.804
    22   6 C        2.988     0.012    27.747     8.641
    23   7 N        2.683    -0.119    23.592     7.214
    24   6 C        3.877    -0.042    21.268     6.557
    25  15 P        4.649     0.293   147.852    21.843
    26  16 S        1.914    -0.047   143.000    20.127
    27  16 S        2.112    -0.057   143.401    20.155
    28   6 C        2.973     0.038    27.138     8.545
    29   6 C        2.963    -0.032    28.795     8.802
    30   6 C        2.922    -0.024    28.593     8.769
    31   6 C        2.919    -0.023    28.569     8.765
    32   6 C        2.922    -0.024    28.594     8.769
    33   6 C        2.952    -0.031    28.773     8.798
    34   7 N        2.680    -0.145    24.143     7.298
    35   6 C        3.893    -0.038    21.196     6.545
    36   6 C        3.953     0.078    19.213     6.228
    37   6 C        3.759    -0.112    22.702     6.793
    38   6 C        3.764    -0.117    22.780     6.803
    39   6 C        2.994    -0.007    28.191     8.710
    40   6 C        2.923    -0.035    28.874     8.812
    41   6 C        2.920    -0.025    28.618     8.773
    42   6 C        2.920    -0.022    28.566     8.765
    43   6 C        2.919    -0.025    28.630     8.774
    44   6 C        2.926    -0.034    28.855     8.809
    45   1 H        0.925     0.057     2.231     2.336
    46   1 H        0.924     0.062     2.177     2.307
    47   1 H        0.924     0.058     2.225     2.333
    48   1 H        0.926     0.036     2.509     2.477
    49   1 H        0.926     0.053     2.288     2.366
    50   1 H        0.926     0.049     2.336     2.390
    51   1 H        0.926     0.052     2.291     2.367
    52   1 H        0.926     0.050     2.324     2.384
    53   1 H        0.926     0.041     2.440     2.443
    54   1 H        0.926     0.049     2.331     2.388
    55   1 H        0.926     0.054     2.273     2.358
    56   1 H        0.926     0.048     2.345     2.394
    57   1 H        0.926     0.050     2.321     2.383
    58   1 H        0.926     0.046     2.367     2.406
    59   1 H        0.926     0.036     2.499     2.472
    60   1 H        0.925     0.077     2.008     2.216
    61   1 H        0.925     0.072     2.063     2.246
    62   1 H        0.924     0.059     2.211     2.326
    63   1 H        0.926     0.048     2.341     2.393
    64   1 H        0.926     0.052     2.293     2.368
    65   1 H        0.926     0.058     2.225     2.332
    66   1 H        0.926     0.058     2.226     2.333
    67   1 H        0.926     0.052     2.297     2.370
    68   1 H        0.925     0.065     2.144     2.290
    69   1 H        0.925     0.072     2.067     2.249
    70   1 H        0.924     0.053     2.279     2.361
    71   1 H        0.925     0.043     2.406     2.426
    72   1 H        0.925     0.064     2.153     2.294
    73   1 H        0.925     0.044     2.401     2.423
    74   1 H        0.925     0.056     2.250     2.346
    75   1 H        0.925     0.064     2.148     2.292
    76   1 H        0.925     0.056     2.249     2.345
    77   1 H        0.926     0.044     2.392     2.419
    78   1 H        0.926     0.050     2.316     2.380
    79   1 H        0.926     0.052     2.291     2.367
    80   1 H        0.926     0.047     2.362     2.403
    81   1 H        0.926     0.033     2.543     2.494

 Mol. C6AA /au·bohr⁶  :      92706.831022
 Mol. C8AA /au·bohr⁸  :    2511891.448953
 Mol. α(0) /au        :        490.355790


Wiberg/Mayer (AO) data.
largest (>0.10) Wiberg bond orders for each atom

 ---------------------------------------------------------------------------
     #   Z sym  total        # sym  WBO       # sym  WBO       # sym  WBO
 ---------------------------------------------------------------------------
     1   6 C    3.961 --    46 H    0.976     2 N    0.975    47 H    0.975
                            45 H    0.965
     2   7 N    3.397 --    25 P    1.201     1 C    0.975     3 C    0.957
     3   6 C    3.950 --    12 C    1.457     4 C    1.287     2 N    0.957
     4   6 C    3.986 --     5 C    1.558     3 C    1.287    48 H    0.962
     5   6 C    3.985 --     4 C    1.558     6 C    1.272    49 H    0.966
                            12 C    0.104
     6   6 C    3.988 --     7 C    1.282     5 C    1.272    11 C    1.253
     7   6 C    3.988 --     8 C    1.553     6 C    1.282    50 H    0.967
                            10 C    0.117
     8   6 C    3.986 --     7 C    1.553     9 C    1.324    51 H    0.969
     9   6 C    3.989 --    10 C    1.551     8 C    1.324    52 H    0.969
    10   6 C    3.988 --     9 C    1.551    11 C    1.286    53 H    0.965
                             7 C    0.117
    11   6 C    3.987 --    10 C    1.286     6 C    1.253    12 C    1.232
    12   6 C    3.986 --     3 C    1.457    11 C    1.232    13 C    1.032
                             5 C    0.104
    13   6 C    3.986 --    14 C    1.455    22 C    1.231    12 C    1.032
                            16 C    0.104
    14   6 C    3.948 --    13 C    1.455    15 C    1.283    23 N    0.983
    15   6 C    3.988 --    16 C    1.560    14 C    1.283    54 H    0.964
    16   6 C    3.984 --    15 C    1.560    17 C    1.269    55 H    0.966
                            13 C    0.104
    17   6 C    3.988 --    18 C    1.282    16 C    1.269    22 C    1.254
    18   6 C    3.988 --    19 C    1.553    17 C    1.282    56 H    0.967
                            21 C    0.117
    19   6 C    3.986 --    18 C    1.553    20 C    1.325    57 H    0.969
    20   6 C    3.990 --    21 C    1.551    19 C    1.325    58 H    0.970
    21   6 C    3.989 --    20 C    1.551    22 C    1.286    59 H    0.966
                            18 C    0.117
    22   6 C    3.987 --    21 C    1.286    17 C    1.254    13 C    1.231
    23   7 N    3.434 --    25 P    1.224    14 C    0.983    24 C    0.968
    24   6 C    3.958 --    60 H    0.977    62 H    0.974    23 N    0.968
                            61 H    0.967
    25  15 P    5.127 --    23 N    1.224    34 N    1.213     2 N    1.201
                            26 S    1.029
    26  16 S    2.502 --    27 S    1.135    25 P    1.029
    27  16 S    2.342 --    26 S    1.135    28 C    0.978
    28   6 C    3.954 --    29 C    1.406    33 C    1.404    27 S    0.978
                            31 C    0.103
    29   6 C    3.989 --    30 C    1.438    28 C    1.406    63 H    0.964
                            32 C    0.109
    30   6 C    3.991 --    31 C    1.439    29 C    1.438    64 H    0.968
                            33 C    0.110
    31   6 C    3.981 --    30 C    1.439    32 C    1.433    65 H    0.969
                            28 C    0.103
    32   6 C    3.990 --    33 C    1.444    31 C    1.433    66 H    0.967
                            29 C    0.109
    33   6 C    3.989 --    32 C    1.444    28 C    1.404    67 H    0.967
                            30 C    0.110
    34   7 N    3.369 --    25 P    1.213    35 C    0.970    36 C    0.920
    35   6 C    3.960 --    70 H    0.974    69 H    0.973    34 N    0.970
                            68 H    0.961
    36   6 C    3.956 --    37 C    0.996    38 C    0.986    39 C    0.976
                            34 N    0.920
    37   6 C    3.992 --    36 C    0.996    72 H    0.979    71 H    0.978
                            73 H    0.966
    38   6 C    3.988 --    36 C    0.986    76 H    0.981    74 H    0.980
                            75 H    0.978
    39   6 C    3.985 --    40 C    1.401    44 C    1.390    36 C    0.976
                            42 C    0.106
    40   6 C    3.989 --    41 C    1.436    39 C    1.401    77 H    0.966
                            43 C    0.106
    41   6 C    3.991 --    42 C    1.445    40 C    1.436    78 H    0.969
                            44 C    0.110
    42   6 C    3.989 --    41 C    1.445    43 C    1.427    79 H    0.970
                            39 C    0.106
    43   6 C    3.991 --    44 C    1.456    42 C    1.427    80 H    0.970
                            40 C    0.106
    44   6 C    3.991 --    43 C    1.456    39 C    1.390    81 H    0.963
                            41 C    0.110
    45   1 H    0.996 --     1 C    0.965
    46   1 H    0.996 --     1 C    0.976
    47   1 H    0.996 --     1 C    0.975
    48   1 H    0.997 --     4 C    0.962
    49   1 H    0.996 --     5 C    0.966
    50   1 H    0.997 --     7 C    0.967
    51   1 H    0.996 --     8 C    0.969
    52   1 H    0.997 --     9 C    0.969
    53   1 H    0.998 --    10 C    0.965
    54   1 H    0.997 --    15 C    0.964
    55   1 H    0.996 --    16 C    0.966
    56   1 H    0.997 --    18 C    0.967
    57   1 H    0.997 --    19 C    0.969
    58   1 H    0.997 --    20 C    0.970
    59   1 H    0.998 --    21 C    0.966
    60   1 H    0.994 --    24 C    0.977
    61   1 H    0.994 --    24 C    0.967
    62   1 H    0.996 --    24 C    0.974
    63   1 H    0.998 --    29 C    0.964
    64   1 H    0.997 --    30 C    0.968
    65   1 H    0.996 --    31 C    0.969
    66   1 H    0.997 --    32 C    0.967
    67   1 H    0.997 --    33 C    0.967
    68   1 H    0.995 --    35 C    0.961
    69   1 H    0.994 --    35 C    0.973
    70   1 H    0.997 --    35 C    0.974
    71   1 H    0.998 --    37 C    0.978
    72   1 H    0.996 --    37 C    0.979
    73   1 H    0.998 --    37 C    0.966
    74   1 H    0.996 --    38 C    0.980
    75   1 H    0.995 --    38 C    0.978
    76   1 H    0.997 --    38 C    0.981
    77   1 H    0.998 --    40 C    0.966
    78   1 H    0.997 --    41 C    0.969
    79   1 H    0.997 --    42 C    0.970
    80   1 H    0.997 --    43 C    0.970
    81   1 H    0.999 --    44 C    0.963
 ---------------------------------------------------------------------------

Topologies differ in total number of bonds
Writing topology from bond orders to xtbtopo.mol

molecular dipole:
                 x           y           z       tot (Debye)
 q only:       -0.265      -0.351      -0.526
   full:       -0.286      -0.195      -0.781       2.173
molecular quadrupole (traceless):
                xx          xy          yy          xz          yz          zz
 q only:       12.103       6.016       0.079       5.842      10.312     -12.182
  q+dip:       12.973       5.293      -4.649       6.205       5.747      -8.325
   full:       10.416       4.892      -0.690       6.494       9.318      -9.726

           -------------------------------------------------
          |                Geometry Summary                 |
           -------------------------------------------------

      molecular mass/u    :      630.8252184
   center of mass at/Å    :       -0.0414628       0.0829289       0.2629110
  moments of inertia/u·Å² :        0.4761113E+04   0.7427936E+04   0.9580083E+04
rotational constants/cm⁻¹ :        0.3540691E-02   0.2269491E-02   0.1759654E-02

 * 83 selected distances

     #   Z          #   Z                                           value/Å
     1   6 C        2   7 N                                       1.4528203
     2   7 N        3   6 C                                       1.4337702
     3   6 C        4   6 C                                       1.4059212
     4   6 C        5   6 C                                       1.3644629
     5   6 C        6   6 C                                       1.4111685
     6   6 C        7   6 C                                       1.4099814
     7   6 C        8   6 C                                       1.3668362
     8   6 C        9   6 C                                       1.4027711
     9   6 C       10   6 C                                       1.3675861
     6   6 C       11   6 C                                       1.4204197
    10   6 C       11   6 C                                       1.4108869
     3   6 C       12   6 C                                       1.3757804
    11   6 C       12   6 C                                       1.4238895
    13   6 C       14   6 C                                       1.3788034
    14   6 C       15   6 C                                       1.4083446
    15   6 C       16   6 C                                       1.3638195
    16   6 C       17   6 C                                       1.4108934
    17   6 C       18   6 C                                       1.4099569
    18   6 C       19   6 C                                       1.3667893
    19   6 C       20   6 C                                       1.4027744
    20   6 C       21   6 C                                       1.3676891
    13   6 C       22   6 C                                       1.4246229
    17   6 C       22   6 C                                       1.4196960
    21   6 C       22   6 C                                       1.4111951
    14   6 C       23   7 N                                       1.4285977
    23   7 N       24   6 C                                       1.4603523
     2   7 N       25  15 P                                       1.6633096
    23   7 N       25  15 P                                       1.6571461
    25  15 P       26  16 S                                       2.1116449 (max)
    26  16 S       27  16 S                                       2.0586358
    28   6 C       29   6 C                                       1.3855836
    29   6 C       30   6 C                                       1.3843275
    30   6 C       31   6 C                                       1.3856495
    31   6 C       32   6 C                                       1.3864696
    28   6 C       33   6 C                                       1.3860328
    32   6 C       33   6 C                                       1.3835277
    25  15 P       34   7 N                                       1.6633337
    34   7 N       35   6 C                                       1.4613721
    36   6 C       37   6 C                                       1.5288283
    36   6 C       38   6 C                                       1.5331392
    39   6 C       40   6 C                                       1.3911069
    40   6 C       41   6 C                                       1.3849430
    41   6 C       42   6 C                                       1.3827244
    42   6 C       43   6 C                                       1.3852198
    39   6 C       44   6 C                                       1.3938880
    43   6 C       44   6 C                                       1.3810292
     1   6 C       45   1 H                                       1.0887821
     1   6 C       46   1 H                                       1.0915584
     1   6 C       47   1 H                                       1.0914737
     4   6 C       48   1 H                                       1.0798447
     5   6 C       49   1 H                                       1.0794479
     7   6 C       50   1 H                                       1.0797682
     8   6 C       51   1 H                                       1.0789581
     9   6 C       52   1 H                                       1.0791454
    10   6 C       53   1 H                                       1.0790677
    15   6 C       54   1 H                                       1.0775797 (min)
    16   6 C       55   1 H                                       1.0791125
    18   6 C       56   1 H                                       1.0797398
    19   6 C       57   1 H                                       1.0790018
    20   6 C       58   1 H                                       1.0793172
    21   6 C       59   1 H                                       1.0792071
    24   6 C       60   1 H                                       1.0888356
    24   6 C       61   1 H                                       1.0875424
    24   6 C       62   1 H                                       1.0929827
    29   6 C       63   1 H                                       1.0781880
    30   6 C       64   1 H                                       1.0792048
    31   6 C       65   1 H                                       1.0788975
    32   6 C       66   1 H                                       1.0788967
    33   6 C       67   1 H                                       1.0801727
    35   6 C       68   1 H                                       1.0893115
    35   6 C       69   1 H                                       1.0896000
    35   6 C       70   1 H                                       1.0914926
    37   6 C       71   1 H                                       1.0888086
    37   6 C       72   1 H                                       1.0862224
    37   6 C       73   1 H                                       1.0895387
    38   6 C       74   1 H                                       1.0862516
    38   6 C       75   1 H                                       1.0874081
    38   6 C       76   1 H                                       1.0859395
    40   6 C       77   1 H                                       1.0776342
    41   6 C       78   1 H                                       1.0790827
    42   6 C       79   1 H                                       1.0787136
    43   6 C       80   1 H                                       1.0794067
    44   6 C       81   1 H                                       1.0796830

 * 6 distinct bonds (by element types)

   Z      Z             #   av. dist./Å        max./Å        min./Å
   1 H    6 C          37     1.0831302     1.0929827     1.0775797
   6 C    6 C          36     1.4004655     1.5331392     1.3638195
   6 C    7 N           5     1.4473825     1.4613721     1.4285977
   7 N   15 P           3     1.6612631     1.6633337     1.6571461
  15 P   16 S           1     2.1116449     2.1116449     2.1116449
  16 S   16 S           1     2.0586358     2.0586358     2.0586358


optimized geometry written to: xtbopt.xyz


           -------------------------------------------------
          | TOTAL ENERGY             -117.750926374250 Eh   |
          | GRADIENT NORM               0.000023592128 Eh/α |
          | HOMO-LUMO GAP               2.393221623594 eV   |
           -------------------------------------------------

------------------------------------------------------------------------
 * finished run on 2024/12/16 at 18:54:19.759     
------------------------------------------------------------------------
 total:
 * wall-time:     0 d,  0 h,  1 min, 50.856 sec
 *  cpu-time:     0 d,  0 h, 14 min, 36.054 sec
 * ratio c/w:     7.903 speedup
 SCF:
 * wall-time:     0 d,  0 h,  0 min,  2.203 sec
 *  cpu-time:     0 d,  0 h,  0 min, 17.514 sec
 * ratio c/w:     7.949 speedup
 ANC optimizer:
 * wall-time:     0 d,  0 h,  1 min, 48.483 sec
 *  cpu-time:     0 d,  0 h, 14 min, 17.236 sec
 * ratio c/w:     7.902 speedup

