      -----------------------------------------------------------      
     |                   =====================                   |     
     |                           x T B                           |     
     |                   =====================                   |     
     |                         S. Grimme                         |     
     |          Mulliken Center for Theoretical Chemistry        |     
     |                    University of Bonn                     |     
      -----------------------------------------------------------      

   * xtb version 6.7.1 (edcfbbe) compiled by 'conda@3ef47c1a292c' on 2024-11-25

   xtb is free software: you can redistribute it and/or modify it under
   the terms of the GNU Lesser General Public License as published by
   the Free Software Foundation, either version 3 of the License, or
   (at your option) any later version.
   
   xtb is distributed in the hope that it will be useful,
   but WITHOUT ANY WARRANTY; without even the implied warranty of
   MERCHANTABILITY or FITNESS FOR A PARTICULAR PURPOSE.  See the
   GNU Lesser General Public License for more details.
   
   Cite this work as:
   * C. Bannwarth, E. Caldeweyher, S. Ehlert, A. Hansen, P. Pracht,
     J. Seibert, S. Spicher, S. Grimme, WIREs Comput. Mol. Sci., 2020, 11,
     e01493. DOI: 10.1002/wcms.1493
   
   for GFN2-xTB:
   * C. Bannwarth, S. Ehlert and S. Grimme., J. Chem. Theory Comput., 2019,
     15, 1652-1671. DOI: 10.1021/acs.jctc.8b01176
   for GFN1-xTB:
   * S. Grimme, C. Bannwarth, P. Shushkov, J. Chem. Theory Comput., 2017,
     13, 1989-2009. DOI: 10.1021/acs.jctc.7b00118
   for GFN0-xTB:
   * P. Pracht, E. Caldeweyher, S. Ehlert, S. Grimme, ChemRxiv, 2019, preprint.
     DOI: 10.26434/chemrxiv.8326202.v1
   for GFN-FF:
   * S. Spicher and S. Grimme, Angew. Chem. Int. Ed., 2020, 59, 15665-15673.
     DOI: 10.1002/anie.202004239
   
   for ALPB and GBSA implicit solvation:
   * S. Ehlert, M. Stahn, S. Spicher, S. Grimme, J. Chem. Theory Comput.,
     2021, 17, 4250-4261. DOI: 10.1021/acs.jctc.1c00471
   
   for ddCOSMO and CPCM-X implicit solvation:
   * M. Stahn, S. Ehlert, S. Grimme, J. Phys. Chem. A,
     2023, XX, XXXX-XXXX. DOI: 10.1021/acs.jpca.3c04382
   
   for DFT-D4:
   * E. Caldeweyher, C. Bannwarth and S. Grimme, J. Chem. Phys., 2017,
     147, 034112. DOI: 10.1063/1.4993215
   * E. Caldeweyher, S. Ehlert, A. Hansen, H. Neugebauer, S. Spicher,
     C. Bannwarth and S. Grimme, J. Chem. Phys., 2019, 150, 154122.
     DOI: 10.1063/1.5090222
   * E. Caldeweyher, J.-M. Mewes, S. Ehlert and S. Grimme, Phys. Chem. Chem. Phys.
     2020, 22, 8499-8512. DOI: 10.1039/D0CP00502A
   
   for sTDA-xTB:
   * S. Grimme and C. Bannwarth, J. Chem. Phys., 2016, 145, 054103.
     DOI: 10.1063/1.4959605
   
   in the mass-spec context:
   * V. Asgeirsson, C. Bauer and S. Grimme, Chem. Sci., 2017, 8, 4879.
     DOI: 10.1039/c7sc00601b
   * J. Koopman and S. Grimme, ACS Omega 2019, 4, 12, 15120-15133.
     DOI: 10.1021/acsomega.9b02011
   
   for metadynamics refer to:
   * S. Grimme, J. Chem. Theory Comput., 2019, 155, 2847-2862
     DOI: 10.1021/acs.jctc.9b00143
   
   for SPH calculations refer to:
   * S. Spicher and S. Grimme, J. Chem. Theory Comput., 2021, 17, 1701-1714
     DOI: 10.1021/acs.jctc.0c01306
   
   for ONIOM refer to:
   * C. Plett, A. Katbashev, S. Ehlert, S. Grimme, M. Bursch,
     Phys. Chem. Chem. Phys., 2023, 25, 17860-17868. DOI: 10.1039/D3CP02178E
   
   for DIPRO refer to:
   * J. Kohn, N. Gildemeister, S. Grimme, D. Fazzi, A. Hansen,
     J. Chem. Phys., 2023, just accepted.
   
   for PTB refer to:
   * S. Grimme, M. Mueller, A. Hansen, J. Chem. Phys., 2023, 158, 124111.
     DOI: 10.1063/5.0137838
   
   with help from (in alphabetical order)
   P. Atkinson, C. Bannwarth, F. Bohle, G. Brandenburg, E. Caldeweyher
   M. Checinski, S. Dohm, S. Ehlert, S. Ehrlich, I. Gerasimov, C. Hölzer
   A. Katbashev, J. Kohn, J. Koopman, C. Lavigne, S. Lehtola, F. März, M. Müller,
   F. Musil, H. Neugebauer, J. Pisarek, C. Plett, P. Pracht, F. Pultar,
   J. Seibert, P. Shushkov, S. Spicher, M. Stahn, M. Steiner, T. Strunk,
   J. Stückrath, T. Rose, and J. Unsleber
   
 * started run on 2024/12/16 at 19:09:10.561     
   ID    Z sym.   atoms
    1    6 C      1, 3-22, 24, 28-32, 34, 36-40
    2    7 N      2, 23, 35
    3   15 P      25
    4   16 S      26, 27
    5    9 F      33
    6    1 H      41-74

           -------------------------------------------------
          |                Calculation Setup                |
           -------------------------------------------------

          program call               : xtb --gfn2 --opt extreme -P 8 --charge 1 molecule.xyz
          hostname                   : node20
          coordinate file            : molecule.xyz
          omp threads                :                     8


           -------------------------------------------------
          |                 G F N 2 - x T B                 |
           -------------------------------------------------

        Reference                      10.1021/acs.jctc.8b01176
      * Hamiltonian:
        H0-scaling (s, p, d)           1.850000    2.230000    2.230000
        zeta-weighting                 0.500000
      * Dispersion:
        s8                             2.700000
        a1                             0.520000
        a2                             5.000000
        s9                             5.000000
      * Repulsion:
        kExp                           1.500000    1.000000
        rExp                           1.000000
      * Coulomb:
        alpha                          2.000000
        third order                    shell-resolved
        anisotropic                    true
        a3                             3.000000
        a5                             4.000000
        cn-shift                       1.200000
        cn-exp                         4.000000
        max-rad                        5.000000


          ...................................................
          :                      SETUP                      :
          :.................................................:
          :  # basis functions                 212          :
          :  # atomic orbitals                 209          :
          :  # shells                          117          :
          :  # electrons                       204          :
          :  max. iterations                   250          :
          :  Hamiltonian                  GFN2-xTB          :
          :  restarted?                      false          :
          :  GBSA solvation                  false          :
          :  PC potential                    false          :
          :  electronic temp.          300.0000000     K    :
          :  accuracy                    1.0000000          :
          :  -> integral cutoff          0.2500000E+02      :
          :  -> integral neglect         0.1000000E-07      :
          :  -> SCF convergence          0.1000000E-05 Eh   :
          :  -> wf. convergence          0.1000000E-03 e    :
          :  Broyden damping             0.4000000          :
          :  net charge                          1          :
          :  unpaired electrons                  0          :
          ...................................................

 iter      E             dE          RMSdq      gap      omega  full diag
   1   -111.6806027 -0.111681E+03  0.453E+00    1.69       0.0  T
   2   -111.8344934 -0.153891E+00  0.281E+00    2.04       1.0  T
   3   -111.8113868  0.231066E-01  0.140E+00    1.81       1.0  T
   4   -111.8434158 -0.320291E-01  0.663E-01    1.50       1.0  T
   5   -111.8649673 -0.215515E-01  0.291E-01    1.61       1.0  T
   6   -111.8672350 -0.226769E-02  0.151E-01    1.58       1.0  T
   7   -111.8686921 -0.145710E-02  0.497E-02    1.59       1.0  T
   8   -111.8687328 -0.407612E-04  0.264E-02    1.60       1.0  T
   9   -111.8687438 -0.109366E-04  0.129E-02    1.60       1.0  T
  10   -111.8687456 -0.182538E-05  0.699E-03    1.60       1.7  T
  11   -111.8687461 -0.452863E-06  0.378E-03    1.60       3.1  T
  12   -111.8687463 -0.228106E-06  0.238E-03    1.60       4.9  T
  13   -111.8687463 -0.302681E-07  0.139E-03    1.60       8.4  T
  14   -111.8687464 -0.478462E-07  0.558E-04    1.60      20.8  T
  15   -111.8687464 -0.258224E-08  0.270E-04    1.60      43.0  T

   *** convergence criteria satisfied after 15 iterations ***

         #    Occupation            Energy/Eh            Energy/eV
      -------------------------------------------------------------
         1        2.0000           -0.9131932             -24.8493
       ...           ...                  ...                  ...
        96        2.0000           -0.5084979             -13.8369
        97        2.0000           -0.5037898             -13.7088
        98        2.0000           -0.4988798             -13.5752
        99        2.0000           -0.4897124             -13.3258
       100        2.0000           -0.4870341             -13.2529
       101        2.0000           -0.4709684             -12.8157
       102        2.0000           -0.4580272             -12.4636 (HOMO)
       103                         -0.3992957             -10.8654 (LUMO)
       104                         -0.3744421             -10.1891
       105                         -0.3635204              -9.8919
       106                         -0.3524755              -9.5913
       107                         -0.3484613              -9.4821
       ...                                ...                  ...
       209                          1.0777373              29.3267
      -------------------------------------------------------------
                  HL-Gap            0.0587316 Eh            1.5982 eV
             Fermi-level           -0.4286615 Eh          -11.6645 eV

 SCC (total)                   0 d,  0 h,  0 min,  2.295 sec
 SCC setup                      ...        0 min,  0.000 sec (  0.011%)
 Dispersion                     ...        0 min,  0.001 sec (  0.047%)
 classical contributions        ...        0 min,  0.000 sec (  0.004%)
 integral evaluation            ...        0 min,  0.006 sec (  0.247%)
 iterations                     ...        0 min,  2.171 sec ( 94.593%)
 molecular gradient             ...        0 min,  0.112 sec (  4.896%)
 printout                       ...        0 min,  0.005 sec (  0.201%)

         :::::::::::::::::::::::::::::::::::::::::::::::::::::
         ::                     SUMMARY                     ::
         :::::::::::::::::::::::::::::::::::::::::::::::::::::
         :: total energy            -110.227085645514 Eh    ::
         :: gradient norm              0.132491326272 Eh/a0 ::
         :: HOMO-LUMO gap              1.598167439001 eV    ::
         ::.................................................::
         :: SCC energy              -111.863553597998 Eh    ::
         :: -> isotropic ES            0.090907877050 Eh    ::
         :: -> anisotropic ES          0.001423788235 Eh    ::
         :: -> anisotropic XC          0.061532222777 Eh    ::
         :: -> dispersion             -0.115432987361 Eh    ::
         :: repulsion energy           1.636467952484 Eh    ::
         :: add. restraining           0.000000000000 Eh    ::
         :: total charge               1.000000000000 e     ::
         :::::::::::::::::::::::::::::::::::::::::::::::::::::

      ----------------------------------------------------------- 
     |                   =====================                   |
     |                        A N C O P T                        |
     |                   =====================                   |
     |               Approximate Normal Coordinate               |
     |                Rational Function Optimizer                |
      ----------------------------------------------------------- 
      ----------------------------------------------------------- 
     |                   =====================                   |
     |                        A N C O P T                        |
     |                   =====================                   |
     |               Approximate Normal Coordinate               |
     |                Rational Function Optimizer                |
      ----------------------------------------------------------- 

          ...................................................
          :                      SETUP                      :
          :.................................................:
          :   optimization level           extreme          :
          :   max. optcycles                  1480          :
          :   ANC micro-cycles                  20          :
          :   degrees of freedom               216          :
          :.................................................:
          :   RF solver                   davidson          :
          :   write xtbopt.log                true          :
          :   linear?                        false          :
          :   energy convergence         0.5000000E-07 Eh   :
          :   grad. convergence          0.5000000E-04 Eh/α :
          :   maxmium RF displ.          1.0000000          :
          :   Hlow (freq-cutoff)         0.1000000E-01      :
          :   Hmax (freq-cutoff)         5.0000000          :
          :   S6 in model hess.         20.0000000          :
          ...................................................

generating ANC from exact Hessian ...
Using Lindh-Hessian (1995)
 Shifting diagonal of input Hessian by    9.8641506926281375E-003
 Lowest  eigenvalues of input Hessian
    0.000000    0.000000    0.000000    0.000000    0.000000    0.000000
    0.010000    0.010071    0.010198    0.010251    0.010296    0.010461
    0.010556    0.010712    0.011148    0.011174    0.011513    0.011835
 Highest eigenvalues
    1.974552    1.987919    2.025264    2.063581    2.066924    2.069669


........................................................................
.............................. CYCLE    1 ..............................
........................................................................

 iter      E             dE          RMSdq      gap      omega  full diag
   1   -111.8687464 -0.111869E+03  0.110E-04    1.60       0.0  T
   2   -111.8687464 -0.962785E-10  0.725E-05    1.60     160.3  T
   3   -111.8687464 -0.536744E-10  0.509E-05    1.60     228.5  T
     SCC iter.                  ...        0 min,  0.265 sec
     gradient                   ...        0 min,  0.113 sec
 * total energy  :  -110.2270856 Eh     change       -0.1300904E-08 Eh
   gradient norm :     0.1324914 Eh/α   predicted     0.0000000E+00 (-100.00%)
   displ. norm   :     0.3944768 α      lambda       -0.2618181E-01
   maximum displ.:     0.1289705 α      in ANC's #22, #20, #68, ...

........................................................................
.............................. CYCLE    2 ..............................
........................................................................

 iter      E             dE          RMSdq      gap      omega  full diag
   1   -111.9357659 -0.111936E+03  0.278E-01    1.72       0.0  T
   2   -111.9359113 -0.145396E-03  0.146E-01    1.79       1.0  T
   3   -111.9358111  0.100173E-03  0.518E-02    1.82       1.0  T
   4   -111.9359272 -0.116085E-03  0.258E-02    1.83       1.0  T
   5   -111.9359482 -0.209943E-04  0.132E-02    1.83       1.0  T
   6   -111.9359557 -0.749592E-05  0.554E-03    1.83       2.1  T
   7   -111.9359562 -0.570401E-06  0.358E-03    1.83       3.2  T
   8   -111.9359564 -0.168397E-06  0.206E-03    1.83       5.6  T
   9   -111.9359565 -0.446548E-07  0.994E-04    1.83      11.7  T
  10   -111.9359565 -0.888163E-08  0.403E-04    1.83      28.8  T
     SCC iter.                  ...        0 min,  1.520 sec
     gradient                   ...        0 min,  0.113 sec
 * total energy  :  -110.2455248 Eh     change       -0.1843919E-01 Eh
   gradient norm :     0.0569869 Eh/α   predicted    -0.1515608E-01 ( -17.81%)
   displ. norm   :     0.4057238 α      lambda       -0.9515204E-02
   maximum displ.:     0.1223028 α      in ANC's #15, #14, #49, ...

........................................................................
.............................. CYCLE    3 ..............................
........................................................................

 iter      E             dE          RMSdq      gap      omega  full diag
   1   -111.9762953 -0.111976E+03  0.199E-01    1.98       0.0  T
   2   -111.9763392 -0.438765E-04  0.106E-01    2.01       1.0  T
   3   -111.9763048  0.344264E-04  0.294E-02    2.03       1.0  T
   4   -111.9763456 -0.407818E-04  0.137E-02    2.03       1.0  T
   5   -111.9763514 -0.586905E-05  0.700E-03    2.03       1.7  T
   6   -111.9763535 -0.207801E-05  0.286E-03    2.03       4.1  T
   7   -111.9763536 -0.960548E-07  0.176E-03    2.03       6.6  T
   8   -111.9763537 -0.593358E-07  0.905E-04    2.03      12.8  T
   9   -111.9763537 -0.768286E-08  0.527E-04    2.03      22.1  T
     SCC iter.                  ...        0 min,  1.113 sec
     gradient                   ...        0 min,  0.112 sec
 * total energy  :  -110.2513403 Eh     change       -0.5815499E-02 Eh
   gradient norm :     0.0127121 Eh/α   predicted    -0.5540763E-02 (  -4.72%)
   displ. norm   :     0.3700834 α      lambda       -0.2185782E-02
   maximum displ.:     0.1625797 α      in ANC's #14, #15, #10, ...

........................................................................
.............................. CYCLE    4 ..............................
........................................................................

 iter      E             dE          RMSdq      gap      omega  full diag
   1   -111.9797270 -0.111980E+03  0.110E-01    2.07       0.0  T
   2   -111.9797453 -0.183247E-04  0.548E-02    2.08       1.0  T
   3   -111.9797408  0.443853E-05  0.155E-02    2.09       1.0  T
   4   -111.9797450 -0.414211E-05  0.921E-03    2.09       1.3  T
   5   -111.9797485 -0.346993E-05  0.329E-03    2.09       3.5  T
   6   -111.9797489 -0.484093E-06  0.157E-03    2.09       7.4  T
   7   -111.9797491 -0.115994E-06  0.494E-04    2.09      23.5  T
   8   -111.9797491 -0.443187E-08  0.266E-04    2.09      43.6  T
     SCC iter.                  ...        0 min,  0.933 sec
     gradient                   ...        0 min,  0.113 sec
 * total energy  :  -110.2529446 Eh     change       -0.1604258E-02 Eh
   gradient norm :     0.0113578 Eh/α   predicted    -0.1242642E-02 ( -22.54%)
   displ. norm   :     0.4693139 α      lambda       -0.1747956E-02
   maximum displ.:     0.2058834 α      in ANC's #15, #14, #10, ...

........................................................................
.............................. CYCLE    5 ..............................
........................................................................

 iter      E             dE          RMSdq      gap      omega  full diag
   1   -111.9813873 -0.111981E+03  0.965E-02    2.12       0.0  T
   2   -111.9813996 -0.122656E-04  0.515E-02    2.11       1.0  T
   3   -111.9813959  0.369777E-05  0.168E-02    2.11       1.0  T
   4   -111.9814019 -0.606173E-05  0.546E-03    2.11       2.1  T
   5   -111.9814021 -0.159881E-06  0.333E-03    2.11       3.5  T
   6   -111.9814025 -0.376980E-06  0.141E-03    2.11       8.3  T
   7   -111.9814025 -0.266818E-07  0.879E-04    2.11      13.2  T
   8   -111.9814025 -0.188565E-07  0.402E-04    2.11      28.9  T
     SCC iter.                  ...        0 min,  1.037 sec
     gradient                   ...        0 min,  0.114 sec
 * total energy  :  -110.2541000 Eh     change       -0.1155438E-02 Eh
   gradient norm :     0.0099877 Eh/α   predicted    -0.1066491E-02 (  -7.70%)
   displ. norm   :     0.3850723 α      lambda       -0.8940399E-03
   maximum displ.:     0.1888386 α      in ANC's #14, #15, #10, ...

........................................................................
.............................. CYCLE    6 ..............................
........................................................................

 iter      E             dE          RMSdq      gap      omega  full diag
   1   -111.9811309 -0.111981E+03  0.101E-01    2.11       0.0  T
   2   -111.9811449 -0.140269E-04  0.456E-02    2.12       1.0  T
   3   -111.9811454 -0.474201E-06  0.120E-02    2.12       1.0  T
   4   -111.9811457 -0.291610E-06  0.687E-03    2.12       1.7  T
   5   -111.9811471 -0.135222E-05  0.188E-03    2.12       6.2  T
   6   -111.9811471 -0.404499E-07  0.947E-04    2.12      12.3  T
   7   -111.9811471 -0.398023E-07  0.492E-04    2.12      23.6  T
     SCC iter.                  ...        0 min,  1.028 sec
     gradient                   ...        0 min,  0.119 sec
 * total energy  :  -110.2546435 Eh     change       -0.5434963E-03 Eh
   gradient norm :     0.0064644 Eh/α   predicted    -0.5133173E-03 (  -5.55%)
   displ. norm   :     0.2592731 α      lambda       -0.4158576E-03
   maximum displ.:     0.1065761 α      in ANC's #14, #15, #10, ...

........................................................................
.............................. CYCLE    7 ..............................
........................................................................

 iter      E             dE          RMSdq      gap      omega  full diag
   1   -111.9836019 -0.111984E+03  0.512E-02    2.12       0.0  T
   2   -111.9836054 -0.357932E-05  0.282E-02    2.12       1.0  T
   3   -111.9836036  0.184929E-05  0.809E-03    2.12       1.4  T
   4   -111.9836057 -0.212285E-05  0.360E-03    2.12       3.2  T
   5   -111.9836062 -0.473747E-06  0.158E-03    2.12       7.4  T
   6   -111.9836062 -0.488810E-07  0.929E-04    2.12      12.5  T
   7   -111.9836063 -0.262348E-07  0.476E-04    2.12      24.4  T
     SCC iter.                  ...        0 min,  1.018 sec
     gradient                   ...        0 min,  0.113 sec
 * total energy  :  -110.2549219 Eh     change       -0.2783988E-03 Eh
   gradient norm :     0.0051596 Eh/α   predicted    -0.2219066E-03 ( -20.29%)
   displ. norm   :     0.2023216 α      lambda       -0.2276471E-03
   maximum displ.:     0.0767449 α      in ANC's #2, #13, #14, ...

........................................................................
.............................. CYCLE    8 ..............................
........................................................................

 iter      E             dE          RMSdq      gap      omega  full diag
   1   -111.9861807 -0.111986E+03  0.379E-02    2.13       0.0  T
   2   -111.9861819 -0.115014E-05  0.215E-02    2.13       1.0  T
   3   -111.9861800  0.189507E-05  0.639E-03    2.13       1.8  T
   4   -111.9861823 -0.232941E-05  0.186E-03    2.12       6.2  T
   5   -111.9861824 -0.804929E-07  0.808E-04    2.12      14.4  T
   6   -111.9861824 -0.119638E-07  0.384E-04    2.12      30.3  T
     SCC iter.                  ...        0 min,  0.738 sec
     gradient                   ...        0 min,  0.113 sec
 * total energy  :  -110.2550779 Eh     change       -0.1559456E-03 Eh
   gradient norm :     0.0037584 Eh/α   predicted    -0.1184833E-03 ( -24.02%)
   displ. norm   :     0.1846153 α      lambda       -0.1367341E-03
   maximum displ.:     0.0834052 α      in ANC's #2, #7, #13, ...

........................................................................
.............................. CYCLE    9 ..............................
........................................................................

 iter      E             dE          RMSdq      gap      omega  full diag
   1   -111.9866424 -0.111987E+03  0.358E-02    2.12       0.0  T
   2   -111.9866437 -0.131040E-05  0.191E-02    2.12       1.0  T
   3   -111.9866426  0.118336E-05  0.622E-03    2.12       1.9  T
   4   -111.9866439 -0.130516E-05  0.285E-03    2.13       4.1  T
   5   -111.9866441 -0.241775E-06  0.123E-03    2.13       9.5  T
   6   -111.9866442 -0.883661E-07  0.453E-04    2.13      25.7  T
   7   -111.9866442 -0.107601E-07  0.189E-04    2.13      61.6  T
     SCC iter.                  ...        0 min,  0.841 sec
     gradient                   ...        0 min,  0.121 sec
 * total energy  :  -110.2551751 Eh     change       -0.9725705E-04 Eh
   gradient norm :     0.0027079 Eh/α   predicted    -0.7069770E-04 ( -27.31%)
   displ. norm   :     0.1996976 α      lambda       -0.1127925E-03
   maximum displ.:     0.0977815 α      in ANC's #2, #7, #13, ...

........................................................................
.............................. CYCLE   10 ..............................
........................................................................

 iter      E             dE          RMSdq      gap      omega  full diag
   1   -111.9866705 -0.111987E+03  0.324E-02    2.13       0.0  T
   2   -111.9866713 -0.731578E-06  0.179E-02    2.13       1.0  T
   3   -111.9866705  0.757903E-06  0.482E-03    2.13       2.4  T
   4   -111.9866712 -0.721114E-06  0.247E-03    2.13       4.7  T
   5   -111.9866715 -0.247555E-06  0.993E-04    2.13      11.7  T
   6   -111.9866715 -0.488498E-07  0.439E-04    2.13      26.5  T
     SCC iter.                  ...        0 min,  0.642 sec
     gradient                   ...        0 min,  0.121 sec
 * total energy  :  -110.2552618 Eh     change       -0.8671150E-04 Eh
   gradient norm :     0.0026344 Eh/α   predicted    -0.5864733E-04 ( -32.36%)
   displ. norm   :     0.2578753 α      lambda       -0.1277480E-03
   maximum displ.:     0.1297888 α      in ANC's #2, #7, #3, ...

........................................................................
.............................. CYCLE   11 ..............................
........................................................................

 iter      E             dE          RMSdq      gap      omega  full diag
   1   -111.9857231 -0.111986E+03  0.430E-02    2.13       0.0  T
   2   -111.9857241 -0.959166E-06  0.233E-02    2.13       1.0  T
   3   -111.9857231  0.996997E-06  0.581E-03    2.13       2.0  T
   4   -111.9857236 -0.547598E-06  0.360E-03    2.13       3.2  T
   5   -111.9857244 -0.747343E-06  0.911E-04    2.13      12.8  T
   6   -111.9857244 -0.485558E-07  0.332E-04    2.13      35.0  T
     SCC iter.                  ...        0 min,  0.865 sec
     gradient                   ...        0 min,  0.121 sec
 * total energy  :  -110.2553645 Eh     change       -0.1026320E-03 Eh
   gradient norm :     0.0035368 Eh/α   predicted    -0.6812488E-04 ( -33.62%)
   displ. norm   :     0.3395489 α      lambda       -0.1537422E-03
   maximum displ.:     0.1734448 α      in ANC's #2, #7, #3, ...

........................................................................
.............................. CYCLE   12 ..............................
........................................................................

 iter      E             dE          RMSdq      gap      omega  full diag
   1   -111.9846788 -0.111985E+03  0.572E-02    2.14       0.0  T
   2   -111.9846801 -0.138271E-05  0.313E-02    2.14       1.0  T
   3   -111.9846787  0.141874E-05  0.716E-03    2.14       1.6  T
   4   -111.9846794 -0.712399E-06  0.448E-03    2.14       2.6  T
   5   -111.9846806 -0.114551E-05  0.110E-03    2.14      10.6  T
   6   -111.9846807 -0.820983E-07  0.376E-04    2.14      30.9  T
   7   -111.9846807 -0.347461E-08  0.207E-04    2.14      56.1  T
     SCC iter.                  ...        0 min,  0.947 sec
     gradient                   ...        0 min,  0.121 sec
 * total energy  :  -110.2554884 Eh     change       -0.1239091E-03 Eh
   gradient norm :     0.0042499 Eh/α   predicted    -0.8573768E-04 ( -30.81%)
   displ. norm   :     0.3921084 α      lambda       -0.1626921E-03
   maximum displ.:     0.2048896 α      in ANC's #2, #7, #3, ...

........................................................................
.............................. CYCLE   13 ..............................
........................................................................

 iter      E             dE          RMSdq      gap      omega  full diag
   1   -111.9839581 -0.111984E+03  0.677E-02    2.15       0.0  T
   2   -111.9839598 -0.167373E-05  0.377E-02    2.15       1.0  T
   3   -111.9839577  0.209228E-05  0.808E-03    2.15       1.4  T
   4   -111.9839590 -0.132494E-05  0.494E-03    2.15       2.4  T
   5   -111.9839604 -0.135303E-05  0.127E-03    2.15       9.1  T
   6   -111.9839605 -0.112328E-06  0.467E-04    2.15      24.9  T
   7   -111.9839605 -0.276219E-08  0.285E-04    2.15      40.8  T
     SCC iter.                  ...        0 min,  0.986 sec
     gradient                   ...        0 min,  0.113 sec
 * total energy  :  -110.2556173 Eh     change       -0.1289150E-03 Eh
   gradient norm :     0.0040324 Eh/α   predicted    -0.9385499E-04 ( -27.20%)
   displ. norm   :     0.3851372 α      lambda       -0.1470858E-03
   maximum displ.:     0.2088626 α      in ANC's #2, #7, #3, ...

........................................................................
.............................. CYCLE   14 ..............................
........................................................................

 iter      E             dE          RMSdq      gap      omega  full diag
   1   -111.9845441 -0.111985E+03  0.674E-02    2.16       0.0  T
   2   -111.9845456 -0.154478E-05  0.381E-02    2.16       1.0  T
   3   -111.9845433  0.232122E-05  0.779E-03    2.16       1.5  T
   4   -111.9845452 -0.190981E-05  0.442E-03    2.16       2.6  T
   5   -111.9845462 -0.989005E-06  0.130E-03    2.16       8.9  T
   6   -111.9845463 -0.112936E-06  0.520E-04    2.16      22.3  T
   7   -111.9845463 -0.404096E-08  0.328E-04    2.16      35.5  T
     SCC iter.                  ...        0 min,  0.998 sec
     gradient                   ...        0 min,  0.117 sec
 * total energy  :  -110.2557318 Eh     change       -0.1144711E-03 Eh
   gradient norm :     0.0032425 Eh/α   predicted    -0.8445308E-04 ( -26.22%)
   displ. norm   :     0.3422829 α      lambda       -0.1146807E-03
   maximum displ.:     0.1956500 α      in ANC's #2, #3, #7, ...

........................................................................
.............................. CYCLE   15 ..............................
........................................................................

 iter      E             dE          RMSdq      gap      omega  full diag
   1   -111.9860703 -0.111986E+03  0.601E-02    2.17       0.0  T
   2   -111.9860716 -0.127523E-05  0.343E-02    2.17       1.0  T
   3   -111.9860691  0.248371E-05  0.740E-03    2.17       1.6  T
   4   -111.9860716 -0.248335E-05  0.354E-03    2.17       3.3  T
   5   -111.9860721 -0.508736E-06  0.131E-03    2.17       8.8  T
   6   -111.9860722 -0.109344E-06  0.520E-04    2.17      22.3  T
   7   -111.9860722 -0.551458E-08  0.323E-04    2.17      36.0  T
     SCC iter.                  ...        0 min,  0.936 sec
     gradient                   ...        0 min,  0.112 sec
 * total energy  :  -110.2558196 Eh     change       -0.8786546E-04 Eh
   gradient norm :     0.0026036 Eh/α   predicted    -0.6405858E-04 ( -27.09%)
   displ. norm   :     0.2877729 α      lambda       -0.7650617E-04
   maximum displ.:     0.1743712 α      in ANC's #2, #3, #7, ...

........................................................................
.............................. CYCLE   16 ..............................
........................................................................

 iter      E             dE          RMSdq      gap      omega  full diag
   1   -111.9873237 -0.111987E+03  0.502E-02    2.18       0.0  T
   2   -111.9873247 -0.926312E-06  0.286E-02    2.18       1.0  T
   3   -111.9873223  0.236782E-05  0.689E-03    2.18       1.7  T
   4   -111.9873248 -0.252577E-05  0.284E-03    2.18       4.1  T
   5   -111.9873251 -0.258173E-06  0.120E-03    2.18       9.7  T
   6   -111.9873252 -0.978564E-07  0.408E-04    2.18      28.5  T
   7   -111.9873252 -0.304327E-08  0.247E-04    2.18      47.2  T
     SCC iter.                  ...        0 min,  0.868 sec
     gradient                   ...        0 min,  0.112 sec
 * total energy  :  -110.2558788 Eh     change       -0.5913772E-04 Eh
   gradient norm :     0.0021565 Eh/α   predicted    -0.4142602E-04 ( -29.95%)
   displ. norm   :     0.2126652 α      lambda       -0.4701830E-04
   maximum displ.:     0.1375572 α      in ANC's #2, #3, #7, ...

........................................................................
.............................. CYCLE   17 ..............................
........................................................................

 iter      E             dE          RMSdq      gap      omega  full diag
   1   -111.9880711 -0.111988E+03  0.371E-02    2.19       0.0  T
   2   -111.9880716 -0.530797E-06  0.211E-02    2.19       1.0  T
   3   -111.9880700  0.160443E-05  0.556E-03    2.19       2.1  T
   4   -111.9880718 -0.174899E-05  0.208E-03    2.19       5.6  T
   5   -111.9880719 -0.113447E-06  0.971E-04    2.19      12.0  T
   6   -111.9880720 -0.661629E-07  0.275E-04    2.19      42.2  T
     SCC iter.                  ...        0 min,  0.868 sec
     gradient                   ...        0 min,  0.117 sec
 * total energy  :  -110.2559160 Eh     change       -0.3726058E-04 Eh
   gradient norm :     0.0014957 Eh/α   predicted    -0.2457427E-04 ( -34.05%)
   displ. norm   :     0.2156448 α      lambda       -0.2875111E-04
   maximum displ.:     0.1490447 α      in ANC's #2, #7, #3, ...

........................................................................
.............................. CYCLE   18 ..............................
........................................................................

 iter      E             dE          RMSdq      gap      omega  full diag
   1   -111.9881982 -0.111988E+03  0.373E-02    2.19       0.0  T
   2   -111.9881987 -0.517160E-06  0.212E-02    2.20       1.0  T
   3   -111.9881967  0.193427E-05  0.585E-03    2.20       2.0  T
   4   -111.9881989 -0.212993E-05  0.199E-03    2.20       5.9  T
   5   -111.9881990 -0.867779E-07  0.101E-03    2.20      11.5  T
   6   -111.9881990 -0.695569E-07  0.260E-04    2.20      44.7  T
   7   -111.9881990 -0.795978E-09  0.153E-04    2.20      76.2  T
     SCC iter.                  ...        0 min,  0.883 sec
     gradient                   ...        0 min,  0.112 sec
 * total energy  :  -110.2559483 Eh     change       -0.3223847E-04 Eh
   gradient norm :     0.0012086 Eh/α   predicted    -0.1467611E-04 ( -54.48%)
   displ. norm   :     0.1137394 α      lambda       -0.1583271E-04
   maximum displ.:     0.0847242 α      in ANC's #2, #7, #5, ...

........................................................................
.............................. CYCLE   19 ..............................
........................................................................

 iter      E             dE          RMSdq      gap      omega  full diag
   1   -111.9881122 -0.111988E+03  0.190E-02    2.20       0.0  T
   2   -111.9881123 -0.116533E-06  0.110E-02    2.20       1.1  T
   3   -111.9881117  0.610150E-06  0.298E-03    2.20       3.9  T
   4   -111.9881124 -0.676523E-06  0.807E-04    2.20      14.4  T
   5   -111.9881124 -0.154417E-07  0.450E-04    2.20      25.8  T
     SCC iter.                  ...        0 min,  0.595 sec
     gradient                   ...        0 min,  0.119 sec
 * total energy  :  -110.2559692 Eh     change       -0.2091655E-04 Eh
   gradient norm :     0.0012323 Eh/α   predicted    -0.7963123E-05 ( -61.93%)
   displ. norm   :     0.1308008 α      lambda       -0.2124010E-04
   maximum displ.:     0.0938499 α      in ANC's #2, #8, #5, ...

........................................................................
.............................. CYCLE   20 ..............................
........................................................................

 iter      E             dE          RMSdq      gap      omega  full diag
   1   -111.9877353 -0.111988E+03  0.218E-02    2.20       0.0  T
   2   -111.9877355 -0.165417E-06  0.127E-02    2.20       1.0  T
   3   -111.9877347  0.796502E-06  0.332E-03    2.20       3.5  T
   4   -111.9877356 -0.889023E-06  0.808E-04    2.20      14.4  T
   5   -111.9877356 -0.187288E-07  0.457E-04    2.20      25.5  T
     SCC iter.                  ...        0 min,  0.606 sec
     gradient                   ...        0 min,  0.112 sec
 * total energy  :  -110.2559964 Eh     change       -0.2717963E-04 Eh
   gradient norm :     0.0010221 Eh/α   predicted    -0.1070261E-04 ( -60.62%)
   displ. norm   :     0.1994321 α      lambda       -0.2840674E-04
   maximum displ.:     0.1343074 α      in ANC's #2, #8, #6, ...
 * RMSD in coord.:     0.4643689 α      energy gain  -0.2891072E-01 Eh

generating ANC from exact Hessian ...
Using Lindh-Hessian (1995)
 Shifting diagonal of input Hessian by    9.8581909980125174E-003
 Lowest  eigenvalues of input Hessian
    0.000000    0.000000    0.000000    0.000000    0.000000    0.000000
    0.010000    0.010130    0.010227    0.010293    0.010319    0.010514
    0.010576    0.010650    0.010981    0.011182    0.011591    0.011693
 Highest eigenvalues
    2.025844    2.033043    2.072994    2.112289    2.113658    2.125007


........................................................................
.............................. CYCLE   21 ..............................
........................................................................

 iter      E             dE          RMSdq      gap      omega  full diag
   1   -111.9881746 -0.111988E+03  0.321E-02    2.20       0.0  T
   2   -111.9881750 -0.366731E-06  0.188E-02    2.20       1.0  T
   3   -111.9881733  0.171857E-05  0.476E-03    2.20       2.4  T
   4   -111.9881752 -0.191963E-05  0.119E-03    2.20       9.8  T
   5   -111.9881752 -0.454342E-07  0.693E-04    2.20      16.8  T
   6   -111.9881753 -0.228373E-07  0.250E-04    2.20      46.5  T
     SCC iter.                  ...        0 min,  0.693 sec
     gradient                   ...        0 min,  0.114 sec
 * total energy  :  -110.2560277 Eh     change       -0.3134895E-04 Eh
   gradient norm :     0.0015201 Eh/α   predicted     0.0000000E+00 (-100.00%)
   displ. norm   :     0.0336335 α      lambda       -0.1006889E-04
   maximum displ.:     0.0172757 α      in ANC's #3, #2, #8, ...

........................................................................
.............................. CYCLE   22 ..............................
........................................................................

 iter      E             dE          RMSdq      gap      omega  full diag
   1   -111.9878056 -0.111988E+03  0.708E-03    2.20       0.0  T
   2   -111.9878056 -0.650313E-07  0.390E-03    2.20       3.0  T
   3   -111.9878056  0.124959E-08  0.912E-04    2.20      12.7  T
   4   -111.9878056 -0.675040E-08  0.424E-04    2.20      27.4  T
     SCC iter.                  ...        0 min,  0.436 sec
     gradient                   ...        0 min,  0.114 sec
 * total energy  :  -110.2560387 Eh     change       -0.1097421E-04 Eh
   gradient norm :     0.0004722 Eh/α   predicted    -0.5047503E-05 ( -54.01%)
   displ. norm   :     0.0754826 α      lambda       -0.1177948E-04
   maximum displ.:     0.0383214 α      in ANC's #3, #2, #8, ...

........................................................................
.............................. CYCLE   23 ..............................
........................................................................

 iter      E             dE          RMSdq      gap      omega  full diag
   1   -111.9876388 -0.111988E+03  0.129E-02    2.20       0.0  T
   2   -111.9876389 -0.789253E-07  0.730E-03    2.20       1.6  T
   3   -111.9876388  0.130690E-06  0.168E-03    2.20       6.9  T
   4   -111.9876389 -0.128583E-06  0.849E-04    2.20      13.7  T
   5   -111.9876389 -0.324865E-07  0.279E-04    2.20      41.7  T
     SCC iter.                  ...        0 min,  0.657 sec
     gradient                   ...        0 min,  0.115 sec
 * total energy  :  -110.2560527 Eh     change       -0.1405450E-04 Eh
   gradient norm :     0.0011520 Eh/α   predicted    -0.5906420E-05 ( -57.97%)
   displ. norm   :     0.1369840 α      lambda       -0.1690154E-04
   maximum displ.:     0.0697860 α      in ANC's #2, #3, #8, ...

........................................................................
.............................. CYCLE   24 ..............................
........................................................................

 iter      E             dE          RMSdq      gap      omega  full diag
   1   -111.9876314 -0.111988E+03  0.276E-02    2.20       0.0  T
   2   -111.9876319 -0.559667E-06  0.144E-02    2.20       1.0  T
   3   -111.9876319 -0.108669E-07  0.320E-03    2.20       3.6  T
   4   -111.9876319  0.221742E-07  0.162E-03    2.20       7.2  T
   5   -111.9876320 -0.110422E-06  0.577E-04    2.20      20.1  T
   6   -111.9876320 -0.145242E-07  0.303E-04    2.20      38.4  T
     SCC iter.                  ...        0 min,  0.691 sec
     gradient                   ...        0 min,  0.113 sec
 * total energy  :  -110.2560707 Eh     change       -0.1791506E-04 Eh
   gradient norm :     0.0017530 Eh/α   predicted    -0.8582003E-05 ( -52.10%)
   displ. norm   :     0.2030593 α      lambda       -0.2411122E-04
   maximum displ.:     0.1066886 α      in ANC's #2, #3, #8, ...

........................................................................
.............................. CYCLE   25 ..............................
........................................................................

 iter      E             dE          RMSdq      gap      omega  full diag
   1   -111.9875104 -0.111988E+03  0.321E-02    2.20       0.0  T
   2   -111.9875110 -0.622019E-06  0.184E-02    2.20       1.0  T
   3   -111.9875102  0.819607E-06  0.406E-03    2.20       2.9  T
   4   -111.9875109 -0.693382E-06  0.228E-03    2.20       5.1  T
   5   -111.9875112 -0.323955E-06  0.817E-04    2.20      14.2  T
   6   -111.9875112 -0.215458E-07  0.372E-04    2.20      31.3  T
     SCC iter.                  ...        0 min,  0.647 sec
     gradient                   ...        0 min,  0.112 sec
 * total energy  :  -110.2560906 Eh     change       -0.1994483E-04 Eh
   gradient norm :     0.0018218 Eh/α   predicted    -0.1227797E-04 ( -38.44%)
   displ. norm   :     0.1342671 α      lambda       -0.1686995E-04
   maximum displ.:     0.0776254 α      in ANC's #2, #3, #8, ...

........................................................................
.............................. CYCLE   26 ..............................
........................................................................

 iter      E             dE          RMSdq      gap      omega  full diag
   1   -111.9878681 -0.111988E+03  0.242E-02    2.20       0.0  T
   2   -111.9878686 -0.456275E-06  0.128E-02    2.20       1.0  T
   3   -111.9878684  0.170874E-06  0.325E-03    2.20       3.6  T
   4   -111.9878685 -0.119415E-06  0.189E-03    2.20       6.2  T
   5   -111.9878686 -0.136947E-06  0.764E-04    2.20      15.2  T
   6   -111.9878687 -0.322372E-07  0.326E-04    2.20      35.6  T
     SCC iter.                  ...        0 min,  0.781 sec
     gradient                   ...        0 min,  0.120 sec
 * total energy  :  -110.2561118 Eh     change       -0.2121969E-04 Eh
   gradient norm :     0.0011356 Eh/α   predicted    -0.8503888E-05 ( -59.92%)
   displ. norm   :     0.1946145 α      lambda       -0.2587061E-04
   maximum displ.:     0.1143987 α      in ANC's #2, #3, #8, ...

........................................................................
.............................. CYCLE   27 ..............................
........................................................................

 iter      E             dE          RMSdq      gap      omega  full diag
   1   -111.9884065 -0.111988E+03  0.336E-02    2.20       0.0  T
   2   -111.9884073 -0.729501E-06  0.177E-02    2.20       1.0  T
   3   -111.9884068  0.430158E-06  0.426E-03    2.20       2.7  T
   4   -111.9884070 -0.179872E-06  0.275E-03    2.20       4.2  T
   5   -111.9884074 -0.431253E-06  0.879E-04    2.20      13.2  T
   6   -111.9884075 -0.362092E-07  0.385E-04    2.20      30.2  T
     SCC iter.                  ...        0 min,  0.770 sec
     gradient                   ...        0 min,  0.112 sec
 * total energy  :  -110.2561413 Eh     change       -0.2946180E-04 Eh
   gradient norm :     0.0008294 Eh/α   predicted    -0.1315717E-04 ( -55.34%)
   displ. norm   :     0.2610156 α      lambda       -0.2649545E-04
   maximum displ.:     0.1530274 α      in ANC's #2, #3, #8, ...

........................................................................
.............................. CYCLE   28 ..............................
........................................................................

 iter      E             dE          RMSdq      gap      omega  full diag
   1   -111.9880815 -0.111988E+03  0.421E-02    2.20       0.0  T
   2   -111.9880830 -0.156388E-05  0.222E-02    2.20       1.0  T
   3   -111.9880817  0.137237E-05  0.687E-03    2.20       1.7  T
   4   -111.9880830 -0.131636E-05  0.368E-03    2.20       3.2  T
   5   -111.9880834 -0.445871E-06  0.170E-03    2.20       6.8  T
   6   -111.9880836 -0.167940E-06  0.568E-04    2.20      20.5  T
   7   -111.9880836 -0.705857E-08  0.368E-04    2.20      31.6  T
     SCC iter.                  ...        0 min,  1.105 sec
     gradient                   ...        0 min,  0.116 sec
 * total energy  :  -110.2561701 Eh     change       -0.2879960E-04 Eh
   gradient norm :     0.0017602 Eh/α   predicted    -0.1365053E-04 ( -52.60%)
   displ. norm   :     0.2894177 α      lambda       -0.2571078E-04
   maximum displ.:     0.1685970 α      in ANC's #2, #3, #8, ...

........................................................................
.............................. CYCLE   29 ..............................
........................................................................

 iter      E             dE          RMSdq      gap      omega  full diag
   1   -111.9876167 -0.111988E+03  0.422E-02    2.20       0.0  T
   2   -111.9876177 -0.997532E-06  0.231E-02    2.20       1.0  T
   3   -111.9876161  0.164927E-05  0.607E-03    2.20       1.9  T
   4   -111.9876177 -0.156657E-05  0.325E-03    2.20       3.6  T
   5   -111.9876181 -0.463047E-06  0.130E-03    2.20       9.0  T
   6   -111.9876182 -0.100363E-06  0.384E-04    2.20      30.3  T
   7   -111.9876182 -0.303361E-08  0.230E-04    2.20      50.5  T
     SCC iter.                  ...        0 min,  0.946 sec
     gradient                   ...        0 min,  0.113 sec
 * total energy  :  -110.2562009 Eh     change       -0.3083333E-04 Eh
   gradient norm :     0.0020895 Eh/α   predicted    -0.1333447E-04 ( -56.75%)
   displ. norm   :     0.2586351 α      lambda       -0.3403596E-04
   maximum displ.:     0.1518059 α      in ANC's #2, #3, #8, ...

........................................................................
.............................. CYCLE   30 ..............................
........................................................................

 iter      E             dE          RMSdq      gap      omega  full diag
   1   -111.9875357 -0.111988E+03  0.362E-02    2.20       0.0  T
   2   -111.9875364 -0.747511E-06  0.196E-02    2.20       1.0  T
   3   -111.9875352  0.115310E-05  0.534E-03    2.20       2.2  T
   4   -111.9875363 -0.104076E-05  0.298E-03    2.20       3.9  T
   5   -111.9875367 -0.399266E-06  0.110E-03    2.20      10.6  T
   6   -111.9875368 -0.713880E-07  0.341E-04    2.20      34.1  T
   7   -111.9875368 -0.132275E-08  0.218E-04    2.20      53.4  T
     SCC iter.                  ...        0 min,  0.862 sec
     gradient                   ...        0 min,  0.113 sec
 * total energy  :  -110.2562304 Eh     change       -0.2946175E-04 Eh
   gradient norm :     0.0017867 Eh/α   predicted    -0.1816081E-04 ( -38.36%)
   displ. norm   :     0.5398919 α      lambda       -0.4523239E-04
   maximum displ.:     0.3194598 α      in ANC's #2, #3, #8, ...

........................................................................
.............................. CYCLE   31 ..............................
........................................................................

 iter      E             dE          RMSdq      gap      omega  full diag
   1   -111.9866413 -0.111987E+03  0.742E-02    2.20       0.0  T
   2   -111.9866444 -0.316124E-05  0.401E-02    2.20       1.0  T
   3   -111.9866399  0.452786E-05  0.107E-02    2.20       1.1  T
   4   -111.9866438 -0.393895E-05  0.615E-03    2.20       1.9  T
   5   -111.9866456 -0.176108E-05  0.222E-03    2.20       5.2  T
   6   -111.9866459 -0.292850E-06  0.690E-04    2.20      16.8  T
   7   -111.9866459 -0.478477E-08  0.437E-04    2.20      26.6  T
     SCC iter.                  ...        0 min,  1.099 sec
     gradient                   ...        0 min,  0.112 sec
 * total energy  :  -110.2562785 Eh     change       -0.4813355E-04 Eh
   gradient norm :     0.0013687 Eh/α   predicted    -0.2555090E-04 ( -46.92%)
   displ. norm   :     0.2878617 α      lambda       -0.2292195E-04
   maximum displ.:     0.1766628 α      in ANC's #2, #3, #8, ...

........................................................................
.............................. CYCLE   32 ..............................
........................................................................

 iter      E             dE          RMSdq      gap      omega  full diag
   1   -111.9874924 -0.111987E+03  0.379E-02    2.20       0.0  T
   2   -111.9874932 -0.831813E-06  0.204E-02    2.20       1.0  T
   3   -111.9874924  0.797432E-06  0.530E-03    2.20       2.2  T
   4   -111.9874931 -0.670900E-06  0.306E-03    2.20       3.8  T
   5   -111.9874935 -0.391048E-06  0.108E-03    2.20      10.7  T
   6   -111.9874936 -0.684573E-07  0.398E-04    2.20      29.2  T
   7   -111.9874936 -0.189208E-08  0.251E-04    2.20      46.4  T
     SCC iter.                  ...        0 min,  0.826 sec
     gradient                   ...        0 min,  0.116 sec
 * total energy  :  -110.2563061 Eh     change       -0.2757194E-04 Eh
   gradient norm :     0.0011382 Eh/α   predicted    -0.1188740E-04 ( -56.89%)
   displ. norm   :     0.3345301 α      lambda       -0.2725527E-04
   maximum displ.:     0.2077902 α      in ANC's #2, #5, #3, ...

........................................................................
.............................. CYCLE   33 ..............................
........................................................................

 iter      E             dE          RMSdq      gap      omega  full diag
   1   -111.9872406 -0.111987E+03  0.465E-02    2.20       0.0  T
   2   -111.9872420 -0.137172E-05  0.243E-02    2.20       1.0  T
   3   -111.9872413  0.692757E-06  0.599E-03    2.20       1.9  T
   4   -111.9872414 -0.747359E-07  0.411E-03    2.20       2.8  T
   5   -111.9872424 -0.994508E-06  0.120E-03    2.20       9.7  T
   6   -111.9872424 -0.734521E-07  0.484E-04    2.20      24.0  T
   7   -111.9872424 -0.275791E-08  0.306E-04    2.20      37.9  T
     SCC iter.                  ...        0 min,  0.824 sec
     gradient                   ...        0 min,  0.115 sec
 * total energy  :  -110.2563423 Eh     change       -0.3620222E-04 Eh
   gradient norm :     0.0015135 Eh/α   predicted    -0.1430663E-04 ( -60.48%)
   displ. norm   :     0.3952830 α      lambda       -0.4662467E-04
   maximum displ.:     0.2467989 α      in ANC's #2, #1, #5, ...

........................................................................
.............................. CYCLE   34 ..............................
........................................................................

 iter      E             dE          RMSdq      gap      omega  full diag
   1   -111.9887285 -0.111989E+03  0.515E-02    2.21       0.0  T
   2   -111.9887302 -0.174786E-05  0.270E-02    2.21       1.0  T
   3   -111.9887297  0.552450E-06  0.667E-03    2.21       1.7  T
   4   -111.9887299 -0.250646E-06  0.414E-03    2.21       2.8  T
   5   -111.9887306 -0.700890E-06  0.139E-03    2.21       8.4  T
   6   -111.9887307 -0.113548E-06  0.553E-04    2.21      21.0  T
   7   -111.9887307 -0.584203E-08  0.338E-04    2.21      34.4  T
     SCC iter.                  ...        0 min,  0.914 sec
     gradient                   ...        0 min,  0.113 sec
 * total energy  :  -110.2564022 Eh     change       -0.5994401E-04 Eh
   gradient norm :     0.0019364 Eh/α   predicted    -0.2493459E-04 ( -58.40%)
   displ. norm   :     0.7815552 α      lambda       -0.8165631E-04
   maximum displ.:     0.4935004 α      in ANC's #2, #1, #5, ...

........................................................................
.............................. CYCLE   35 ..............................
........................................................................

 iter      E             dE          RMSdq      gap      omega  full diag
   1   -111.9854069 -0.111985E+03  0.105E-01    2.21       0.0  T
   2   -111.9854141 -0.723554E-05  0.553E-02    2.21       1.0  T
   3   -111.9854100  0.414710E-05  0.137E-02    2.21       1.0  T
   4   -111.9854113 -0.134099E-05  0.925E-03    2.22       1.3  T
   5   -111.9854160 -0.468281E-05  0.292E-03    2.21       4.0  T
   6   -111.9854165 -0.479644E-06  0.981E-04    2.21      11.9  T
   7   -111.9854165 -0.153514E-07  0.574E-04    2.21      20.3  T
     SCC iter.                  ...        0 min,  1.050 sec
     gradient                   ...        0 min,  0.116 sec
 * total energy  :  -110.2565022 Eh     change       -0.9994749E-04 Eh
   gradient norm :     0.0029929 Eh/α   predicted    -0.5191337E-04 ( -48.06%)
   displ. norm   :     0.4675426 α      lambda       -0.8560503E-04
   maximum displ.:     0.2942828 α      in ANC's #2, #1, #5, ...

........................................................................
.............................. CYCLE   36 ..............................
........................................................................

 iter      E             dE          RMSdq      gap      omega  full diag
   1   -111.9847788 -0.111985E+03  0.581E-02    2.22       0.0  T
   2   -111.9847807 -0.196334E-05  0.309E-02    2.22       1.0  T
   3   -111.9847797  0.976999E-06  0.711E-03    2.22       1.6  T
   4   -111.9847798 -0.634992E-07  0.490E-03    2.22       2.4  T
   5   -111.9847812 -0.140791E-05  0.142E-03    2.22       8.2  T
   6   -111.9847813 -0.107994E-06  0.510E-04    2.22      22.8  T
   7   -111.9847813 -0.414725E-08  0.290E-04    2.22      40.1  T
     SCC iter.                  ...        0 min,  0.928 sec
     gradient                   ...        0 min,  0.115 sec
 * total energy  :  -110.2565791 Eh     change       -0.7693176E-04 Eh
   gradient norm :     0.0032140 Eh/α   predicted    -0.5216233E-04 ( -32.20%)
   displ. norm   :     0.4555922 α      lambda       -0.1344961E-03
   maximum displ.:     0.2718883 α      in ANC's #2, #1, #5, ...

........................................................................
.............................. CYCLE   37 ..............................
........................................................................

 iter      E             dE          RMSdq      gap      omega  full diag
   1   -111.9873109 -0.111987E+03  0.527E-02    2.23       0.0  T
   2   -111.9873124 -0.147659E-05  0.288E-02    2.23       1.0  T
   3   -111.9873114  0.101165E-05  0.663E-03    2.23       1.8  T
   4   -111.9873124 -0.962694E-06  0.355E-03    2.23       3.3  T
   5   -111.9873128 -0.429431E-06  0.132E-03    2.23       8.8  T
   6   -111.9873129 -0.115007E-06  0.493E-04    2.23      23.6  T
   7   -111.9873129 -0.656686E-08  0.244E-04    2.23      47.7  T
     SCC iter.                  ...        0 min,  1.055 sec
     gradient                   ...        0 min,  0.113 sec
 * total energy  :  -110.2566925 Eh     change       -0.1134327E-03 Eh
   gradient norm :     0.0023505 Eh/α   predicted    -0.8121164E-04 ( -28.41%)
   displ. norm   :     0.5790662 α      lambda       -0.1381818E-03
   maximum displ.:     0.3509570 α      in ANC's #2, #1, #5, ...

........................................................................
.............................. CYCLE   38 ..............................
........................................................................

 iter      E             dE          RMSdq      gap      omega  full diag
   1   -111.9878923 -0.111988E+03  0.683E-02    2.24       0.0  T
   2   -111.9878947 -0.240521E-05  0.373E-02    2.24       1.0  T
   3   -111.9878931  0.161505E-05  0.811E-03    2.24       1.4  T
   4   -111.9878940 -0.824976E-06  0.514E-03    2.24       2.3  T
   5   -111.9878954 -0.140590E-05  0.164E-03    2.24       7.1  T
   6   -111.9878955 -0.161002E-06  0.595E-04    2.24      19.5  T
   7   -111.9878955 -0.801903E-08  0.305E-04    2.24      38.2  T
     SCC iter.                  ...        0 min,  0.838 sec
     gradient                   ...        0 min,  0.114 sec
 * total energy  :  -110.2568189 Eh     change       -0.1264047E-03 Eh
   gradient norm :     0.0023841 Eh/α   predicted    -0.9225965E-04 ( -27.01%)
   displ. norm   :     0.5708259 α      lambda       -0.1509891E-03
   maximum displ.:     0.3345336 α      in ANC's #2, #1, #5, ...

........................................................................
.............................. CYCLE   39 ..............................
........................................................................

 iter      E             dE          RMSdq      gap      omega  full diag
   1   -111.9884706 -0.111988E+03  0.679E-02    2.25       0.0  T
   2   -111.9884730 -0.231500E-05  0.374E-02    2.25       1.0  T
   3   -111.9884712  0.178708E-05  0.807E-03    2.25       1.4  T
   4   -111.9884724 -0.123091E-05  0.481E-03    2.25       2.4  T
   5   -111.9884736 -0.116163E-05  0.164E-03    2.25       7.1  T
   6   -111.9884737 -0.169814E-06  0.604E-04    2.25      19.3  T
   7   -111.9884737 -0.864901E-08  0.302E-04    2.25      38.5  T
     SCC iter.                  ...        0 min,  1.044 sec
     gradient                   ...        0 min,  0.118 sec
 * total energy  :  -110.2569574 Eh     change       -0.1384860E-03 Eh
   gradient norm :     0.0026421 Eh/α   predicted    -0.1000959E-03 ( -27.72%)
   displ. norm   :     0.5314962 α      lambda       -0.1603257E-03
   maximum displ.:     0.3207117 α      in ANC's #1, #2, #5, ...

........................................................................
.............................. CYCLE   40 ..............................
........................................................................

 iter      E             dE          RMSdq      gap      omega  full diag
   1   -111.9895679 -0.111990E+03  0.638E-02    2.25       0.0  T
   2   -111.9895698 -0.191924E-05  0.356E-02    2.26       1.0  T
   3   -111.9895682  0.161943E-05  0.741E-03    2.26       1.6  T
   4   -111.9895696 -0.144519E-05  0.400E-03    2.26       2.9  T
   5   -111.9895703 -0.711124E-06  0.145E-03    2.26       8.0  T
   6   -111.9895705 -0.133025E-06  0.587E-04    2.26      19.8  T
   7   -111.9895705 -0.960432E-08  0.294E-04    2.26      39.5  T
     SCC iter.                  ...        0 min,  1.026 sec
     gradient                   ...        0 min,  0.113 sec
 * total energy  :  -110.2571034 Eh     change       -0.1459290E-03 Eh
   gradient norm :     0.0030603 Eh/α   predicted    -0.1028136E-03 ( -29.55%)
   displ. norm   :     0.5225864 α      lambda       -0.1666131E-03
   maximum displ.:     0.3266145 α      in ANC's #1, #2, #5, ...

........................................................................
.............................. CYCLE   41 ..............................
........................................................................

 iter      E             dE          RMSdq      gap      omega  full diag
   1   -111.9897614 -0.111990E+03  0.639E-02    2.26       0.0  T
   2   -111.9897633 -0.193980E-05  0.358E-02    2.26       1.0  T
   3   -111.9897620  0.133398E-05  0.710E-03    2.26       1.6  T
   4   -111.9897632 -0.124312E-05  0.378E-03    2.26       3.1  T
   5   -111.9897639 -0.619711E-06  0.138E-03    2.26       8.4  T
   6   -111.9897640 -0.113251E-06  0.600E-04    2.26      19.4  T
   7   -111.9897640 -0.100832E-07  0.315E-04    2.26      36.9  T
     SCC iter.                  ...        0 min,  1.071 sec
     gradient                   ...        0 min,  0.119 sec
 * total energy  :  -110.2572562 Eh     change       -0.1528721E-03 Eh
   gradient norm :     0.0032873 Eh/α   predicted    -0.1060584E-03 ( -30.62%)
   displ. norm   :     0.4963083 α      lambda       -0.1776334E-03
   maximum displ.:     0.3289410 α      in ANC's #1, #2, #5, ...

........................................................................
.............................. CYCLE   42 ..............................
........................................................................

 iter      E             dE          RMSdq      gap      omega  full diag
   1   -111.9906895 -0.111991E+03  0.611E-02    2.26       0.0  T
   2   -111.9906913 -0.173143E-05  0.345E-02    2.26       1.0  T
   3   -111.9906901  0.120045E-05  0.664E-03    2.26       1.8  T
   4   -111.9906914 -0.136104E-05  0.317E-03    2.27       3.7  T
   5   -111.9906918 -0.373139E-06  0.113E-03    2.26      10.3  T
   6   -111.9906919 -0.562737E-07  0.594E-04    2.26      19.6  T
   7   -111.9906919 -0.103886E-07  0.335E-04    2.26      34.7  T
     SCC iter.                  ...        0 min,  0.987 sec
     gradient                   ...        0 min,  0.114 sec
 * total energy  :  -110.2574180 Eh     change       -0.1617990E-03 Eh
   gradient norm :     0.0033750 Eh/α   predicted    -0.1106958E-03 ( -31.58%)
   displ. norm   :     0.5343022 α      lambda       -0.1947329E-03
   maximum displ.:     0.3547999 α      in ANC's #1, #2, #8, ...
 * RMSD in coord.:     0.8287291 α      energy gain  -0.1421668E-02 Eh

generating ANC from exact Hessian ...
Using Lindh-Hessian (1995)
 Shifting diagonal of input Hessian by    9.8119199895188997E-003
 Lowest  eigenvalues of input Hessian
    0.000000    0.000000    0.000000    0.000000    0.000000    0.000000
    0.010000    0.010131    0.010207    0.010343    0.010440    0.010507
    0.010732    0.010787    0.011142    0.011368    0.011628    0.011820
 Highest eigenvalues
    2.026270    2.035567    2.071787    2.111187    2.111346    2.124546


........................................................................
.............................. CYCLE   43 ..............................
........................................................................

 iter      E             dE          RMSdq      gap      omega  full diag
   1   -111.9893097 -0.111989E+03  0.649E-02    2.26       0.0  T
   2   -111.9893118 -0.216595E-05  0.365E-02    2.26       1.0  T
   3   -111.9893108  0.108572E-05  0.698E-03    2.26       1.7  T
   4   -111.9893119 -0.116341E-05  0.356E-03    2.27       3.3  T
   5   -111.9893124 -0.502213E-06  0.132E-03    2.26       8.8  T
   6   -111.9893125 -0.855450E-07  0.649E-04    2.26      17.9  T
   7   -111.9893125 -0.120669E-07  0.368E-04    2.26      31.5  T
     SCC iter.                  ...        0 min,  0.925 sec
     gradient                   ...        0 min,  0.113 sec
 * total energy  :  -110.2575952 Eh     change       -0.1772004E-03 Eh
   gradient norm :     0.0033675 Eh/α   predicted     0.0000000E+00 (-100.00%)
   displ. norm   :     0.0639019 α      lambda       -0.6612090E-04
   maximum displ.:     0.0342064 α      in ANC's #1, #12, #7, ...

........................................................................
.............................. CYCLE   44 ..............................
........................................................................

 iter      E             dE          RMSdq      gap      omega  full diag
   1   -111.9902142 -0.111990E+03  0.130E-02    2.26       0.0  T
   2   -111.9902145 -0.303896E-06  0.694E-03    2.26       1.7  T
   3   -111.9902145  0.563506E-07  0.218E-03    2.26       5.3  T
   4   -111.9902146 -0.898934E-07  0.980E-04    2.26      11.9  T
   5   -111.9902146 -0.109821E-07  0.520E-04    2.26      22.4  T
     SCC iter.                  ...        0 min,  0.679 sec
     gradient                   ...        0 min,  0.118 sec
 * total energy  :  -110.2576519 Eh     change       -0.5668246E-04 Eh
   gradient norm :     0.0017928 Eh/α   predicted    -0.3320257E-04 ( -41.42%)
   displ. norm   :     0.3769014 α      lambda       -0.1963068E-03
   maximum displ.:     0.1873363 α      in ANC's #1, #7, #12, ...

........................................................................
.............................. CYCLE   45 ..............................
........................................................................

 iter      E             dE          RMSdq      gap      omega  full diag
   1   -111.9922073 -0.111992E+03  0.668E-02    2.26       0.0  T
   2   -111.9922115 -0.418371E-05  0.369E-02    2.26       1.0  T
   3   -111.9922100  0.157081E-05  0.824E-03    2.26       1.4  T
   4   -111.9922117 -0.169519E-05  0.406E-03    2.27       2.9  T
   5   -111.9922124 -0.721115E-06  0.164E-03    2.26       7.1  T
   6   -111.9922125 -0.109031E-06  0.762E-04    2.26      15.3  T
   7   -111.9922125 -0.271815E-07  0.320E-04    2.26      36.3  T
     SCC iter.                  ...        0 min,  0.946 sec
     gradient                   ...        0 min,  0.116 sec
 * total energy  :  -110.2577978 Eh     change       -0.1459214E-03 Eh
   gradient norm :     0.0056739 Eh/α   predicted    -0.1043685E-03 ( -28.48%)
   displ. norm   :     0.1615331 α      lambda       -0.1128386E-03
   maximum displ.:     0.0830524 α      in ANC's #1, #7, #2, ...

........................................................................
.............................. CYCLE   46 ..............................
........................................................................

 iter      E             dE          RMSdq      gap      omega  full diag
   1   -111.9911395 -0.111991E+03  0.321E-02    2.26       0.0  T
   2   -111.9911412 -0.169200E-05  0.163E-02    2.26       1.0  T
   3   -111.9911413 -0.751558E-07  0.510E-03    2.26       2.3  T
   4   -111.9911413 -0.296225E-07  0.214E-03    2.26       5.4  T
   5   -111.9911414 -0.944492E-07  0.118E-03    2.26       9.8  T
   6   -111.9911414 -0.353970E-07  0.596E-04    2.26      19.5  T
   7   -111.9911414 -0.348933E-08  0.367E-04    2.26      31.7  T
     SCC iter.                  ...        0 min,  0.999 sec
     gradient                   ...        0 min,  0.113 sec
 * total energy  :  -110.2578733 Eh     change       -0.7547104E-04 Eh
   gradient norm :     0.0046438 Eh/α   predicted    -0.5789196E-04 ( -23.29%)
   displ. norm   :     0.1846237 α      lambda       -0.1015976E-03
   maximum displ.:     0.0985518 α      in ANC's #1, #7, #2, ...

........................................................................
.............................. CYCLE   47 ..............................
........................................................................

 iter      E             dE          RMSdq      gap      omega  full diag
   1   -111.9896863 -0.111990E+03  0.227E-02    2.25       0.0  T
   2   -111.9896868 -0.484770E-06  0.129E-02    2.26       1.0  T
   3   -111.9896862  0.550532E-06  0.360E-03    2.25       3.2  T
   4   -111.9896868 -0.616080E-06  0.150E-03    2.26       7.7  T
   5   -111.9896869 -0.980841E-07  0.742E-04    2.26      15.7  T
   6   -111.9896869 -0.155426E-07  0.375E-04    2.26      31.0  T
     SCC iter.                  ...        0 min,  0.995 sec
     gradient                   ...        0 min,  0.118 sec
 * total energy  :  -110.2579555 Eh     change       -0.8216935E-04 Eh
   gradient norm :     0.0026715 Eh/α   predicted    -0.5253192E-04 ( -36.07%)
   displ. norm   :     0.2922143 α      lambda       -0.1403559E-03
   maximum displ.:     0.1562747 α      in ANC's #1, #7, #2, ...

........................................................................
.............................. CYCLE   48 ..............................
........................................................................

 iter      E             dE          RMSdq      gap      omega  full diag
   1   -111.9881814 -0.111988E+03  0.367E-02    2.25       0.0  T
   2   -111.9881826 -0.118919E-05  0.209E-02    2.25       1.0  T
   3   -111.9881818  0.734611E-06  0.481E-03    2.25       2.4  T
   4   -111.9881826 -0.748319E-06  0.251E-03    2.26       4.6  T
   5   -111.9881829 -0.283722E-06  0.106E-03    2.25      10.9  T
   6   -111.9881829 -0.552077E-07  0.422E-04    2.25      27.5  T
   7   -111.9881829 -0.688051E-08  0.186E-04    2.25      62.3  T
     SCC iter.                  ...        0 min,  0.803 sec
     gradient                   ...        0 min,  0.114 sec
 * total energy  :  -110.2580602 Eh     change       -0.1047010E-03 Eh
   gradient norm :     0.0034947 Eh/α   predicted    -0.7617014E-04 ( -27.25%)
   displ. norm   :     0.3090365 α      lambda       -0.1173849E-03
   maximum displ.:     0.1673987 α      in ANC's #1, #7, #2, ...

........................................................................
.............................. CYCLE   49 ..............................
........................................................................

 iter      E             dE          RMSdq      gap      omega  full diag
   1   -111.9874177 -0.111987E+03  0.379E-02    2.25       0.0  T
   2   -111.9874190 -0.126191E-05  0.210E-02    2.26       1.0  T
   3   -111.9874182  0.754637E-06  0.557E-03    2.26       2.1  T
   4   -111.9874192 -0.100384E-05  0.235E-03    2.26       4.9  T
   5   -111.9874193 -0.123298E-06  0.965E-04    2.26      12.0  T
   6   -111.9874194 -0.399152E-07  0.425E-04    2.26      27.3  T
     SCC iter.                  ...        0 min,  0.811 sec
     gradient                   ...        0 min,  0.113 sec
 * total energy  :  -110.2581541 Eh     change       -0.9393455E-04 Eh
   gradient norm :     0.0053990 Eh/α   predicted    -0.6429758E-04 ( -31.55%)
   displ. norm   :     0.3665553 α      lambda       -0.1442528E-03
   maximum displ.:     0.2004063 α      in ANC's #1, #7, #2, ...

........................................................................
.............................. CYCLE   50 ..............................
........................................................................

 iter      E             dE          RMSdq      gap      omega  full diag
   1   -111.9877647 -0.111988E+03  0.463E-02    2.25       0.0  T
   2   -111.9877661 -0.142036E-05  0.264E-02    2.25       1.0  T
   3   -111.9877651  0.104673E-05  0.558E-03    2.25       2.1  T
   4   -111.9877664 -0.129124E-05  0.259E-03    2.25       4.5  T
   5   -111.9877666 -0.240351E-06  0.789E-04    2.25      14.7  T
   6   -111.9877666 -0.104491E-07  0.322E-04    2.25      36.1  T
     SCC iter.                  ...        0 min,  0.655 sec
     gradient                   ...        0 min,  0.113 sec
 * total energy  :  -110.2582739 Eh     change       -0.1197953E-03 Eh
   gradient norm :     0.0057461 Eh/α   predicted    -0.8181853E-04 ( -31.70%)
   displ. norm   :     0.4352772 α      lambda       -0.1764951E-03
   maximum displ.:     0.2448329 α      in ANC's #1, #7, #3, ...

........................................................................
.............................. CYCLE   51 ..............................
........................................................................

 iter      E             dE          RMSdq      gap      omega  full diag
   1   -111.9888699 -0.111989E+03  0.552E-02    2.25       0.0  T
   2   -111.9888718 -0.197254E-05  0.316E-02    2.25       1.0  T
   3   -111.9888695  0.230006E-05  0.706E-03    2.25       1.6  T
   4   -111.9888724 -0.282286E-05  0.285E-03    2.25       4.1  T
   5   -111.9888726 -0.266800E-06  0.894E-04    2.25      13.0  T
   6   -111.9888727 -0.133396E-07  0.359E-04    2.25      32.4  T
     SCC iter.                  ...        0 min,  0.662 sec
     gradient                   ...        0 min,  0.113 sec
 * total energy  :  -110.2584164 Eh     change       -0.1425133E-03 Eh
   gradient norm :     0.0042197 Eh/α   predicted    -0.1049684E-03 ( -26.34%)
   displ. norm   :     0.4412646 α      lambda       -0.1581972E-03
   maximum displ.:     0.2584955 α      in ANC's #1, #7, #6, ...

........................................................................
.............................. CYCLE   52 ..............................
........................................................................

 iter      E             dE          RMSdq      gap      omega  full diag
   1   -111.9900047 -0.111990E+03  0.532E-02    2.25       0.0  T
   2   -111.9900066 -0.189230E-05  0.313E-02    2.25       1.0  T
   3   -111.9900039  0.274840E-05  0.714E-03    2.25       1.6  T
   4   -111.9900071 -0.322899E-05  0.258E-03    2.25       4.5  T
   5   -111.9900074 -0.294955E-06  0.989E-04    2.25      11.8  T
   6   -111.9900074 -0.960495E-08  0.519E-04    2.25      22.4  T
     SCC iter.                  ...        0 min,  0.676 sec
     gradient                   ...        0 min,  0.113 sec
 * total energy  :  -110.2585455 Eh     change       -0.1290948E-03 Eh
   gradient norm :     0.0024048 Eh/α   predicted    -0.9450119E-04 ( -26.80%)
   displ. norm   :     0.4046607 α      lambda       -0.1339671E-03
   maximum displ.:     0.2465951 α      in ANC's #1, #6, #7, ...

........................................................................
.............................. CYCLE   53 ..............................
........................................................................

 iter      E             dE          RMSdq      gap      omega  full diag
   1   -111.9909826 -0.111991E+03  0.453E-02    2.25       0.0  T
   2   -111.9909840 -0.135199E-05  0.268E-02    2.25       1.0  T
   3   -111.9909818  0.219267E-05  0.638E-03    2.25       1.8  T
   4   -111.9909844 -0.263522E-05  0.196E-03    2.25       5.9  T
   5   -111.9909846 -0.156370E-06  0.746E-04    2.25      15.6  T
   6   -111.9909846 -0.654539E-08  0.350E-04    2.25      33.2  T
     SCC iter.                  ...        0 min,  0.733 sec
     gradient                   ...        0 min,  0.121 sec
 * total energy  :  -110.2586589 Eh     change       -0.1134090E-03 Eh
   gradient norm :     0.0025046 Eh/α   predicted    -0.7795962E-04 ( -31.26%)
   displ. norm   :     0.3671576 α      lambda       -0.1198538E-03
   maximum displ.:     0.2297279 α      in ANC's #1, #6, #3, ...

........................................................................
.............................. CYCLE   54 ..............................
........................................................................

 iter      E             dE          RMSdq      gap      omega  full diag
   1   -111.9915185 -0.111992E+03  0.384E-02    2.25       0.0  T
   2   -111.9915196 -0.105710E-05  0.229E-02    2.25       1.0  T
   3   -111.9915180  0.157080E-05  0.587E-03    2.25       2.0  T
   4   -111.9915199 -0.188543E-05  0.172E-03    2.25       6.8  T
   5   -111.9915200 -0.128171E-06  0.584E-04    2.25      19.9  T
   6   -111.9915200 -0.682509E-08  0.221E-04    2.25      52.5  T
     SCC iter.                  ...        0 min,  0.746 sec
     gradient                   ...        0 min,  0.114 sec
 * total energy  :  -110.2587633 Eh     change       -0.1043991E-03 Eh
   gradient norm :     0.0032924 Eh/α   predicted    -0.6800525E-04 ( -34.86%)
   displ. norm   :     0.3417887 α      lambda       -0.1130189E-03
   maximum displ.:     0.2182680 α      in ANC's #1, #6, #3, ...

........................................................................
.............................. CYCLE   55 ..............................
........................................................................

 iter      E             dE          RMSdq      gap      omega  full diag
   1   -111.9916111 -0.111992E+03  0.344E-02    2.25       0.0  T
   2   -111.9916118 -0.704799E-06  0.202E-02    2.25       1.0  T
   3   -111.9916107  0.119485E-05  0.509E-03    2.25       2.3  T
   4   -111.9916121 -0.142831E-05  0.148E-03    2.25       7.9  T
   5   -111.9916122 -0.788774E-07  0.549E-04    2.25      21.2  T
   6   -111.9916122 -0.585392E-08  0.286E-04    2.25      40.6  T
     SCC iter.                  ...        0 min,  0.934 sec
     gradient                   ...        0 min,  0.121 sec
 * total energy  :  -110.2588622 Eh     change       -0.9884750E-04 Eh
   gradient norm :     0.0034406 Eh/α   predicted    -0.6311091E-04 ( -36.15%)
   displ. norm   :     0.3254737 α      lambda       -0.1046983E-03
   maximum displ.:     0.2119429 α      in ANC's #1, #6, #3, ...

........................................................................
.............................. CYCLE   56 ..............................
........................................................................

 iter      E             dE          RMSdq      gap      omega  full diag
   1   -111.9913967 -0.111991E+03  0.337E-02    2.25       0.0  T
   2   -111.9913973 -0.664245E-06  0.195E-02    2.25       1.0  T
   3   -111.9913964  0.918600E-06  0.478E-03    2.25       2.4  T
   4   -111.9913975 -0.108313E-05  0.167E-03    2.25       7.0  T
   5   -111.9913976 -0.918551E-07  0.646E-04    2.25      18.0  T
   6   -111.9913976 -0.116646E-07  0.364E-04    2.25      31.9  T
     SCC iter.                  ...        0 min,  0.793 sec
     gradient                   ...        0 min,  0.116 sec
 * total energy  :  -110.2589528 Eh     change       -0.9062940E-04 Eh
   gradient norm :     0.0028228 Eh/α   predicted    -0.5789471E-04 ( -36.12%)
   displ. norm   :     0.2977381 α      lambda       -0.8891867E-04
   maximum displ.:     0.1986483 α      in ANC's #1, #6, #3, ...

........................................................................
.............................. CYCLE   57 ..............................
........................................................................

 iter      E             dE          RMSdq      gap      omega  full diag
   1   -111.9912559 -0.111991E+03  0.320E-02    2.25       0.0  T
   2   -111.9912565 -0.589969E-06  0.183E-02    2.25       1.0  T
   3   -111.9912559  0.626223E-06  0.424E-03    2.25       2.7  T
   4   -111.9912566 -0.748356E-06  0.165E-03    2.25       7.0  T
   5   -111.9912567 -0.849692E-07  0.626E-04    2.25      18.6  T
   6   -111.9912567 -0.107665E-07  0.348E-04    2.25      33.4  T
     SCC iter.                  ...        0 min,  0.803 sec
     gradient                   ...        0 min,  0.113 sec
 * total energy  :  -110.2590291 Eh     change       -0.7632292E-04 Eh
   gradient norm :     0.0018668 Eh/α   predicted    -0.4840344E-04 ( -36.58%)
   displ. norm   :     0.3728026 α      lambda       -0.6827113E-04
   maximum displ.:     0.2565326 α      in ANC's #1, #6, #3, ...

........................................................................
.............................. CYCLE   58 ..............................
........................................................................

 iter      E             dE          RMSdq      gap      omega  full diag
   1   -111.9911515 -0.111991E+03  0.422E-02    2.25       0.0  T
[...]
        99        2.0000           -0.4976335             -13.5413
       100        2.0000           -0.4894764             -13.3193
       101        2.0000           -0.4825551             -13.1310
       102        2.0000           -0.4727711             -12.8648 (HOMO)
       103                         -0.3894517             -10.5975 (LUMO)
       104                         -0.3739605             -10.1760
       105                         -0.3629888              -9.8774
       106                         -0.3546826              -9.6514
       107                         -0.3434456              -9.3456
       108                         -0.3408296              -9.2744
       109                         -0.3331356              -9.0651
       110                         -0.3281867              -8.9304
       111                         -0.3005218              -8.1776
       112                         -0.2988566              -8.1323
       113                         -0.2863035              -7.7907
       ...                                ...                  ...
       209                          1.0003730              27.2215
      -------------------------------------------------------------
                  HL-Gap            0.0833195 Eh            2.2672 eV
             Fermi-level           -0.4311114 Eh          -11.7311 eV

     #   Z          covCN         q      C6AA      α(0)
     1   6 C        3.905    -0.042    21.262     6.554
     2   7 N        2.683    -0.115    23.514     7.202
     3   6 C        3.064     0.054    26.720     8.476
     4   6 C        2.916    -0.051    29.255     8.869
     5   6 C        2.918    -0.034    28.839     8.806
     6   6 C        2.986     0.011    27.759     8.642
     7   6 C        2.919    -0.031    28.785     8.798
     8   6 C        2.915    -0.023    28.578     8.766
     9   6 C        2.917    -0.023    28.579     8.766
    10   6 C        2.917    -0.034    28.836     8.806
    11   6 C        2.988     0.011    27.752     8.641
    12   6 C        2.978    -0.013    28.327     8.730
    13   6 C        2.981    -0.007    28.190     8.709
    14   6 C        3.334     0.052    24.511     7.846
    15   6 C        2.913    -0.046    29.150     8.853
    16   6 C        2.920    -0.034    28.842     8.807
    17   6 C        2.986     0.013    27.710     8.635
    18   6 C        2.919    -0.030    28.758     8.794
    19   6 C        2.915    -0.021    28.522     8.758
    20   6 C        2.917    -0.021    28.540     8.760
    21   6 C        2.917    -0.032    28.791     8.799
    22   6 C        2.987     0.011    27.760     8.643
    23   7 N        2.684    -0.127    23.756     7.239
    24   6 C        3.754    -0.034    21.238     6.571
    25  15 P        4.699     0.277   148.496    21.890
    26  16 S        1.899    -0.057   143.416    20.156
    27  16 S        2.091    -0.036   142.557    20.095
    28   6 C        2.977     0.037    27.177     8.551
    29   6 C        2.961    -0.040    28.985     8.831
    30   6 C        2.926    -0.023    28.572     8.766
    31   6 C        2.916    -0.044    29.084     8.844
    32   6 C        2.789     0.178    24.164     8.052
    33   9 F        0.788    -0.200    11.233     3.959
    34   6 C        2.952    -0.053    29.316     8.881
    35   7 N        2.680    -0.130    23.823     7.249
    36   6 C        3.834    -0.048    21.410     6.583
    37   6 C        3.937     0.085    19.117     6.213
    38   6 C        3.774    -0.125    22.933     6.824
    39   6 C        3.761    -0.125    22.944     6.828
    40   6 C        3.759    -0.126    22.960     6.831
    41   1 H        0.925     0.072     2.060     2.244
    42   1 H        0.924     0.065     2.139     2.287
    43   1 H        0.925     0.075     2.027     2.226
    44   1 H        0.926     0.050     2.324     2.384
    45   1 H        0.926     0.053     2.278     2.360
    46   1 H        0.926     0.048     2.339     2.392
    47   1 H        0.926     0.051     2.306     2.375
    48   1 H        0.926     0.048     2.347     2.396
    49   1 H        0.926     0.037     2.495     2.470
    50   1 H        0.926     0.039     2.466     2.456
    51   1 H        0.926     0.054     2.266     2.354
    52   1 H        0.926     0.050     2.318     2.381
    53   1 H        0.926     0.054     2.271     2.356
    54   1 H        0.926     0.051     2.307     2.375
    55   1 H        0.926     0.041     2.435     2.440
    56   1 H        0.924     0.059     2.216     2.328
    57   1 H        0.924     0.064     2.158     2.297
    58   1 H        0.925     0.060     2.195     2.317
    59   1 H        0.926     0.058     2.219     2.330
    60   1 H        0.926     0.065     2.136     2.286
    61   1 H        0.926     0.082     1.961     2.190
    62   1 H        0.926     0.075     2.029     2.227
    63   1 H        0.925     0.071     2.075     2.253
    64   1 H        0.925     0.070     2.089     2.260
    65   1 H        0.924     0.062     2.177     2.307
    66   1 H        0.925     0.061     2.187     2.313
    67   1 H        0.925     0.074     2.040     2.234
    68   1 H        0.925     0.056     2.248     2.345
    69   1 H        0.925     0.052     2.296     2.370
    70   1 H        0.925     0.059     2.214     2.327
    71   1 H        0.925     0.068     2.109     2.271
    72   1 H        0.925     0.051     2.307     2.375
    73   1 H        0.925     0.068     2.108     2.270
    74   1 H        0.925     0.050     2.318     2.381

 Mol. C6AA /au·bohr⁶  :      75405.941075
 Mol. C8AA /au·bohr⁸  :    2045831.470774
 Mol. α(0) /au        :        439.202695


Wiberg/Mayer (AO) data.
largest (>0.10) Wiberg bond orders for each atom

 ---------------------------------------------------------------------------
     #   Z sym  total        # sym  WBO       # sym  WBO       # sym  WBO
 ---------------------------------------------------------------------------
     1   6 C    3.959 --    43 H    0.977    42 H    0.970     2 N    0.969
                            41 H    0.962
     2   7 N    3.443 --    25 P    1.213     3 C    0.994     1 C    0.969
     3   6 C    3.949 --    12 C    1.448     4 C    1.283     2 N    0.994
     4   6 C    3.987 --     5 C    1.555     3 C    1.283    44 H    0.962
     5   6 C    3.985 --     4 C    1.555     6 C    1.272    45 H    0.966
                            12 C    0.105
     6   6 C    3.988 --     7 C    1.281     5 C    1.272    11 C    1.253
     7   6 C    3.988 --     8 C    1.554     6 C    1.281    46 H    0.967
                            10 C    0.117
     8   6 C    3.985 --     7 C    1.554     9 C    1.323    47 H    0.969
     9   6 C    3.990 --    10 C    1.553     8 C    1.323    48 H    0.970
    10   6 C    3.989 --     9 C    1.553    11 C    1.284    49 H    0.965
                             7 C    0.117
    11   6 C    3.987 --    10 C    1.284     6 C    1.253    12 C    1.235
    12   6 C    3.985 --     3 C    1.448    11 C    1.235    13 C    1.029
                             5 C    0.105
    13   6 C    3.987 --    14 C    1.452    22 C    1.234    12 C    1.029
                            16 C    0.105
    14   6 C    3.950 --    13 C    1.452    15 C    1.288    23 N    0.947
    15   6 C    3.988 --    16 C    1.557    14 C    1.288    50 H    0.961
    16   6 C    3.985 --    15 C    1.557    17 C    1.273    51 H    0.966
                            13 C    0.105
    17   6 C    3.988 --    18 C    1.283    16 C    1.273    22 C    1.252
    18   6 C    3.988 --    19 C    1.553    17 C    1.283    52 H    0.967
                            21 C    0.117
    19   6 C    3.986 --    18 C    1.553    20 C    1.324    53 H    0.969
    20   6 C    3.989 --    21 C    1.551    19 C    1.324    54 H    0.969
    21   6 C    3.988 --    20 C    1.551    22 C    1.286    55 H    0.965
                            18 C    0.117
    22   6 C    3.987 --    21 C    1.286    17 C    1.252    13 C    1.234
    23   7 N    3.401 --    25 P    1.220    24 C    0.976    14 C    0.947
    24   6 C    3.960 --    56 H    0.977    23 N    0.976    57 H    0.975
                            58 H    0.968
    25  15 P    5.145 --    35 N    1.255    23 N    1.220     2 N    1.213
                            26 S    0.964
    26  16 S    2.455 --    27 S    1.159    25 P    0.964
    27  16 S    2.361 --    26 S    1.159    28 C    0.983
    28   6 C    3.960 --    34 C    1.407    29 C    1.406    27 S    0.983
                            31 C    0.101
    29   6 C    3.988 --    30 C    1.433    28 C    1.406    59 H    0.962
    30   6 C    3.989 --    31 C    1.444    29 C    1.433    60 H    0.967
                            34 C    0.108
    31   6 C    3.979 --    30 C    1.444    32 C    1.385    61 H    0.964
                            28 C    0.101
    32   6 C    3.895 --    34 C    1.393    31 C    1.385    33 F    0.981
    33   9 F    1.124 --    32 C    0.981
    34   6 C    3.986 --    28 C    1.407    32 C    1.393    62 H    0.962
                            30 C    0.108
    35   7 N    3.407 --    25 P    1.255    36 C    0.970    37 C    0.922
    36   6 C    3.956 --    65 H    0.976    63 H    0.973    35 N    0.970
                            64 H    0.964
    37   6 C    3.955 --    38 C    0.998    40 C    0.995    39 C    0.994
                            35 N    0.922
    38   6 C    3.991 --    37 C    0.998    67 H    0.976    68 H    0.973
                            66 H    0.942
    39   6 C    3.987 --    37 C    0.994    69 H    0.982    70 H    0.982
                            71 H    0.978
    40   6 C    3.988 --    37 C    0.995    72 H    0.982    73 H    0.979
                            74 H    0.973
    41   1 H    0.994 --     1 C    0.962
    42   1 H    0.995 --     1 C    0.970
    43   1 H    0.994 --     1 C    0.977
    44   1 H    0.997 --     4 C    0.962
    45   1 H    0.996 --     5 C    0.966
    46   1 H    0.997 --     7 C    0.967
    47   1 H    0.997 --     8 C    0.969
    48   1 H    0.997 --     9 C    0.970
    49   1 H    0.998 --    10 C    0.965
    50   1 H    0.997 --    15 C    0.961
    51   1 H    0.996 --    16 C    0.966
    52   1 H    0.997 --    18 C    0.967
    53   1 H    0.996 --    19 C    0.969
    54   1 H    0.997 --    20 C    0.969
    55   1 H    0.998 --    21 C    0.965
    56   1 H    0.996 --    24 C    0.977
    57   1 H    0.996 --    24 C    0.975
    58   1 H    0.996 --    24 C    0.968
    59   1 H    0.997 --    29 C    0.962
    60   1 H    0.995 --    30 C    0.967
    61   1 H    0.992 --    31 C    0.964
    62   1 H    0.994 --    34 C    0.962
    63   1 H    0.991 --    36 C    0.973
    64   1 H    0.995 --    36 C    0.964
    65   1 H    0.996 --    36 C    0.976
    66   1 H    0.996 --    38 C    0.942
    67   1 H    0.993 --    38 C    0.976
    68   1 H    0.997 --    38 C    0.973
    69   1 H    0.997 --    39 C    0.982
    70   1 H    0.996 --    39 C    0.982
    71   1 H    0.994 --    39 C    0.978
    72   1 H    0.997 --    40 C    0.982
    73   1 H    0.995 --    40 C    0.979
    74   1 H    0.997 --    40 C    0.973
 ---------------------------------------------------------------------------

Topologies differ in total number of bonds
Writing topology from bond orders to xtbtopo.mol

molecular dipole:
                 x           y           z       tot (Debye)
 q only:       -0.242      -1.277      -0.484
   full:       -0.172      -1.040      -0.357       2.829
molecular quadrupole (traceless):
                xx          xy          yy          xz          yz          zz
 q only:       -8.701     -14.839       6.951      -5.027      16.910       1.750
  q+dip:      -10.595     -16.738       4.056      -5.378      16.599       6.539
   full:      -10.923     -13.838       6.309      -3.885      17.468       4.615

           -------------------------------------------------
          |                Geometry Summary                 |
           -------------------------------------------------

      molecular mass/u    :      586.7461198
   center of mass at/Å    :        0.2224479       0.2007508       0.3683722
  moments of inertia/u·Å² :        0.4883281E+04   0.5675050E+04   0.8147013E+04
rotational constants/cm⁻¹ :        0.3452112E-02   0.2970482E-02   0.2069179E-02

 * 77 selected distances

     #   Z          #   Z                                           value/Å
     1   6 C        2   7 N                                       1.4604093
     2   7 N        3   6 C                                       1.4236078
     3   6 C        4   6 C                                       1.4083900
     4   6 C        5   6 C                                       1.3647731
     5   6 C        6   6 C                                       1.4099917
     6   6 C        7   6 C                                       1.4100028
     7   6 C        8   6 C                                       1.3665513
     8   6 C        9   6 C                                       1.4029615
     9   6 C       10   6 C                                       1.3675104
     6   6 C       11   6 C                                       1.4192904
    10   6 C       11   6 C                                       1.4116456
     3   6 C       12   6 C                                       1.3809094
    11   6 C       12   6 C                                       1.4242844
    13   6 C       14   6 C                                       1.3761894
    14   6 C       15   6 C                                       1.4043880
    15   6 C       16   6 C                                       1.3649091
    16   6 C       17   6 C                                       1.4116118
    17   6 C       18   6 C                                       1.4101042
    18   6 C       19   6 C                                       1.3669513
    19   6 C       20   6 C                                       1.4028517
    20   6 C       21   6 C                                       1.3675897
    13   6 C       22   6 C                                       1.4235006
    17   6 C       22   6 C                                       1.4210249
    21   6 C       22   6 C                                       1.4108311
    14   6 C       23   7 N                                       1.4371421
    23   7 N       24   6 C                                       1.4500320
     2   7 N       25  15 P                                       1.6581374
    23   7 N       25  15 P                                       1.6521649
    25  15 P       26  16 S                                       2.1468699 (max)
    26  16 S       27  16 S                                       2.0456536
    28   6 C       29   6 C                                       1.3858332
    29   6 C       30   6 C                                       1.3852378
    30   6 C       31   6 C                                       1.3841964
    31   6 C       32   6 C                                       1.3858113
    32   6 C       33   9 F                                       1.3386951
    28   6 C       34   6 C                                       1.3852743
    32   6 C       34   6 C                                       1.3836453
    25  15 P       35   7 N                                       1.6545346
    35   7 N       36   6 C                                       1.4599200
    35   7 N       37   6 C                                       1.4831521
    37   6 C       38   6 C                                       1.5262360
    37   6 C       39   6 C                                       1.5303544
    37   6 C       40   6 C                                       1.5287055
     1   6 C       41   1 H                                       1.0898216
     1   6 C       42   1 H                                       1.0927748
     1   6 C       43   1 H                                       1.0895940
     4   6 C       44   1 H                                       1.0771633 (min)
     5   6 C       45   1 H                                       1.0794648
     7   6 C       46   1 H                                       1.0798143
     8   6 C       47   1 H                                       1.0789464
     9   6 C       48   1 H                                       1.0792262
    10   6 C       49   1 H                                       1.0791614
    15   6 C       50   1 H                                       1.0796079
    16   6 C       51   1 H                                       1.0794704
    18   6 C       52   1 H                                       1.0797368
    19   6 C       53   1 H                                       1.0789206
    20   6 C       54   1 H                                       1.0790914
    21   6 C       55   1 H                                       1.0791425
    24   6 C       56   1 H                                       1.0922959
    24   6 C       57   1 H                                       1.0908219
    24   6 C       58   1 H                                       1.0886461
    29   6 C       59   1 H                                       1.0781126
    30   6 C       60   1 H                                       1.0785573
    31   6 C       61   1 H                                       1.0779431
    34   6 C       62   1 H                                       1.0793935
    36   6 C       63   1 H                                       1.0893572
    36   6 C       64   1 H                                       1.0869336
    36   6 C       65   1 H                                       1.0911320
    38   6 C       66   1 H                                       1.0885552
    38   6 C       67   1 H                                       1.0868911
    38   6 C       68   1 H                                       1.0870516
    39   6 C       69   1 H                                       1.0871533
    39   6 C       70   1 H                                       1.0853274
    39   6 C       71   1 H                                       1.0863824
    40   6 C       72   1 H                                       1.0873207
    40   6 C       73   1 H                                       1.0859052
    40   6 C       74   1 H                                       1.0885447

 * 7 distinct bonds (by element types)

   Z      Z             #   av. dist./Å        max./Å        min./Å
   1 H    6 C          34     1.0840665     1.0927748     1.0771633
   6 C    6 C          31     1.4071470     1.5303544     1.3647731
   6 C    7 N           6     1.4523772     1.4831521     1.4236078
   6 C    9 F           1     1.3386951     1.3386951     1.3386951
   7 N   15 P           3     1.6549456     1.6581374     1.6521649
  15 P   16 S           1     2.1468699     2.1468699     2.1468699
  16 S   16 S           1     2.0456536     2.0456536     2.0456536


optimized geometry written to: xtbopt.xyz


           -------------------------------------------------
          | TOTAL ENERGY             -110.259582472415 Eh   |
          | GRADIENT NORM               0.000020348389 Eh/α |
          | HOMO-LUMO GAP               2.267237721444 eV   |
           -------------------------------------------------

------------------------------------------------------------------------
 * finished run on 2024/12/16 at 19:11:06.700     
------------------------------------------------------------------------
 total:
 * wall-time:     0 d,  0 h,  1 min, 56.139 sec
 *  cpu-time:     0 d,  0 h, 15 min, 19.405 sec
 * ratio c/w:     7.916 speedup
 SCF:
 * wall-time:     0 d,  0 h,  0 min,  2.296 sec
 *  cpu-time:     0 d,  0 h,  0 min, 18.286 sec
 * ratio c/w:     7.966 speedup
 ANC optimizer:
 * wall-time:     0 d,  0 h,  1 min, 53.676 sec
 *  cpu-time:     0 d,  0 h, 14 min, 59.817 sec
 * ratio c/w:     7.916 speedup

