74
 energy: -110.227085646814 gnorm: 0.132491595686 xtb: 6.7.1 (edcfbbe)
C           -0.37429900000000       -3.10154100000000        1.23414200000000
N           -0.33004500000000       -1.72452700000000        0.74632300000000
C           -1.03211000000000       -0.77759900000000        1.55084000000000
C           -1.19366100000000       -0.98566000000000        2.93456300000000
C           -1.82266500000000       -0.05185200000000        3.75064100000000
C           -2.28931000000000        1.14483300000000        3.22030200000000
C           -2.85663400000000        2.10376200000000        4.07771900000000
C           -3.29642200000000        3.33135500000000        3.59152800000000
C           -3.16245900000000        3.61664100000000        2.24275700000000
C           -2.60459200000000        2.66506800000000        1.38406200000000
C           -2.17270800000000        1.38744100000000        1.82954000000000
C           -1.59914800000000        0.38419300000000        0.95625300000000
C           -1.64120700000000        0.51179700000000       -0.47230900000000
C           -0.43480600000000        0.49065400000000       -1.22466600000000
C           -0.47895300000000        0.77060500000000       -2.60455900000000
C           -1.67462500000000        1.03242300000000       -3.26327100000000
C           -2.88175600000000        0.98267200000000       -2.57666300000000
C           -4.08129800000000        1.19559700000000       -3.27880200000000
C           -5.31401700000000        1.10558300000000       -2.63956100000000
C           -5.35928200000000        0.78600900000000       -1.29274800000000
C           -4.16981000000000        0.58018700000000       -0.58768300000000
C           -2.88793500000000        0.70084600000000       -1.18778100000000
N            0.80273700000000        0.19262600000000       -0.58047600000000
C            1.96672200000000        0.84678000000000       -1.17034400000000
P            1.10904700000000       -1.31588500000000        0.02705100000000
S            2.67049500000000       -1.32792600000000        1.44640500000000
S            2.08643900000000        0.01187800000000        2.88335700000000
C            2.65215700000000        1.57875900000000        2.26055600000000
C            1.71944800000000        2.58190800000000        1.96758500000000
C            2.13937600000000        3.82769600000000        1.49345400000000
C            3.49825300000000        4.07917900000000        1.31990300000000
C            4.42171000000000        3.08495900000000        1.62404100000000
F            5.72845300000000        3.33070300000000        1.46101900000000
C            4.01426700000000        1.84154100000000        2.09517100000000
N            1.29592400000000       -2.29750600000000       -1.29561900000000
C            0.09811200000000       -2.66032400000000       -2.06026100000000
C            2.50169500000000       -3.07893400000000       -1.68140100000000
C            3.75478800000000       -2.18322000000000       -1.75946300000000
C            2.41661200000000       -3.73994400000000       -3.09009600000000
C            2.72189600000000       -4.22789800000000       -0.67964600000000
H           -0.10078900000000       -3.80803300000000        0.44678200000000
H            0.31668300000000       -3.26428400000000        2.06800200000000
H           -1.38752000000000       -3.38294100000000        1.54503000000000
H           -0.78699900000000       -1.86725800000000        3.42087200000000
H           -1.89977900000000       -0.25773800000000        4.81568900000000
H           -2.94962700000000        1.90303900000000        5.14316300000000
H           -3.72838600000000        4.06410600000000        4.26710900000000
H           -3.48548600000000        4.57677000000000        1.84943000000000
H           -2.49647300000000        2.94417900000000        0.33710800000000
H            0.42245400000000        0.75752900000000       -3.20871200000000
H           -1.64873200000000        1.23747700000000       -4.33089900000000
H           -4.06355400000000        1.42416300000000       -4.34252700000000
H           -6.23264900000000        1.26821300000000       -3.19575900000000
H           -6.31372700000000        0.68967600000000       -0.78252000000000
H           -4.25864500000000        0.30470200000000        0.46194300000000
H            1.78564300000000        1.91751100000000       -1.32066100000000
H            2.24854100000000        0.39694700000000       -2.12675600000000
H            2.84050000000000        0.77242200000000       -0.52038300000000
H            0.65502300000000        2.39455600000000        2.09611300000000
H            1.40382500000000        4.59396400000000        1.26225200000000
H            3.84333700000000        5.04124600000000        0.95511100000000
H            4.76416400000000        1.09246600000000        2.32825700000000
H            0.19302300000000       -2.37049200000000       -3.11118100000000
H           -0.80533500000000       -2.16336900000000       -1.69932400000000
H           -0.11272500000000       -3.73235800000000       -1.98765600000000
H            4.01682800000000       -1.70715200000000       -0.81752900000000
H            4.63453300000000       -2.76816100000000       -2.05527600000000
H            3.62919300000000       -1.39542400000000       -2.50981700000000
H            2.24845000000000       -2.99297600000000       -3.87479900000000
H            1.62667100000000       -4.49623900000000       -3.15220900000000
H            3.35320900000000       -4.25570800000000       -3.33799300000000
H            1.86005500000000       -4.90445100000000       -0.65804200000000
H            3.59763300000000       -4.82692200000000       -0.95613600000000
H            2.89027000000000       -3.87833600000000        0.33945300000000
74
 energy: -110.245524836849 gnorm: 0.056986957496 xtb: 6.7.1 (edcfbbe)
C           -0.37940267989952       -3.10254692309815        1.23205855308904
N           -0.35903909647142       -1.72478963361788        0.74126784630190
C           -1.03528982186779       -0.75782233364336        1.55560487463262
C           -1.17078315542735       -0.97378304967816        2.93759291700391
C           -1.80564811265627       -0.06376206229478        3.74611085570187
C           -2.28686955110869        1.14250295732983        3.22171807148805
C           -2.85670280136273        2.10743491830203        4.07381428075342
C           -3.28983943048485        3.31615143578896        3.58304881365087
C           -3.14948605114847        3.59204348157511        2.22350217319985
C           -2.60606916727263        2.65329126908868        1.36788399442734
C           -2.17758214467082        1.38563788401604        1.82486108754577
C           -1.60669095211619        0.38076867561417        0.96727499286697
C           -1.64300736955845        0.52483870557464       -0.48410857950022
C           -0.45604252333796        0.49711686970252       -1.22806401475386
C           -0.48161377560024        0.75814574878192       -2.60758035734717
C           -1.65816287114850        1.02691880900499       -3.26110449593794
C           -2.87993218981127        0.98489757592100       -2.57770302626474
C           -4.08495311523489        1.19482184537758       -3.27437539078400
C           -5.29710078537433        1.10450477111825       -2.63308044354520
C           -5.32982253317708        0.78258535597194       -1.27693662792247
C           -4.15806084175937        0.58652717551380       -0.57186696854529
C           -2.88879405427057        0.70848948360828       -1.18239245714576
N            0.78868846417363        0.21974044041837       -0.58131141291738
C            1.96587075401707        0.85745207088117       -1.16605469634418
P            1.06943326672224       -1.31635369685844       -0.00895931731408
S            2.70057155582960       -1.29737341531150        1.37514170732612
S            2.06230180682868        0.01146834666190        2.83334967854534
C            2.64919529447467        1.58797404205765        2.24402462383923
C            1.71677928553115        2.57897730084928        1.95640346008961
C            2.14137460380704        3.81830636897057        1.49759513094692
C            3.49256668464997        4.07366249703639        1.32327560756275
C            4.41047646247972        3.07936210979114        1.62792593188472
F            5.71636173413527        3.31989406215877        1.46367764727208
C            4.00852109315926        1.83744534494948        2.09267433841312
N            1.30372871184731       -2.31812671688696       -1.31815383409687
C            0.09140614188691       -2.66471527793068       -2.05747023231257
C            2.52198441198082       -3.09809086186062       -1.67938189627255
C            3.74929117945567       -2.17906675416714       -1.74194758728047
C            2.40070845402553       -3.73184103122551       -3.08329537342656
C            2.72836584664024       -4.23074305652128       -0.66962958520115
H           -0.10034454129155       -3.78917514299326        0.43089660640440
H            0.31008446508235       -3.26709417173667        2.06641033589594
H           -1.39027641249517       -3.36235644682532        1.54938478399723
H           -0.77954826250652       -1.86713189960881        3.40283506301338
H           -1.90033441142267       -0.27237433090423        4.80272254767678
H           -2.94488915892898        1.90048694664367        5.13193405007320
H           -3.72255790252366        4.04935490550654        4.25119739131592
H           -3.46825777573653        4.54962702189111        1.83379508034998
H           -2.49801611346022        2.91917323414221        0.32426285356896
H            0.42730811831642        0.75767281037978       -3.19127369135440
H           -1.63598465492392        1.24217541777847       -4.32045982809254
H           -4.05840573479299        1.41961778102648       -4.33229070775120
H           -6.21535859846282        1.26654856880728       -3.18231351828005
H           -6.28078840185308        0.68317351945901       -0.77110558102584
H           -4.23498277908724        0.31627309926138        0.47315914137991
H            1.77164603537488        1.92073840845444       -1.31355375824132
H            2.24812455824585        0.41124668429384       -2.12386811977823
H            2.82531362006713        0.76529709976423       -0.49787060923232
H            0.66027906859785        2.38774665565104        2.09391057988721
H            1.41174574073286        4.58226650766953        1.27112723520550
H            3.83959330713008        5.03130933375939        0.96153432094618
H            4.75277316034251        1.08795768242080        2.32610563608951
H            0.19750126920254       -2.37687073497154       -3.10354846624409
H           -0.78374138430263       -2.13865721688583       -1.66796587411789
H           -0.11474641138960       -3.73494413175892       -1.99393886969609
H            3.98437297006876       -1.70856975095175       -0.78920163232038
H            4.61923887909154       -2.76577224669696       -2.03731585291570
H            3.61353216651394       -1.40281269168472       -2.49605207871233
H            2.23998707980241       -2.98545535777740       -3.86015090829328
H            1.61866939925572       -4.48562209816570       -3.14493873407791
H            3.34092059653987       -4.23406266925377       -3.30968894817979
H            1.86402108093848       -4.89634580322369       -0.65995076867880
H            3.59847531879312       -4.82250563476756       -0.94937673212713
H            2.88791098119592       -3.85285708167313        0.34019676368627
74
 energy: -110.251340335675 gnorm: 0.012712095521 xtb: 6.7.1 (edcfbbe)
C           -0.38591447728977       -3.10387169477884        1.22417352046125
N           -0.37537206308659       -1.72470340083883        0.73408612243147
C           -1.03371913610312       -0.74477561359787        1.55476578969110
C           -1.15267105500977       -0.97256503468576        2.93706542399752
C           -1.78755978685970       -0.07513132712461        3.74104774818945
C           -2.27884091096514        1.13669821089484        3.21941411993290
C           -2.85381803211744        2.10714466518277        4.06467904865729
C           -3.28324800586862        3.30243098329432        3.56543744166633
C           -3.14007848028402        3.56852434515682        2.19631432509778
C           -2.60529288127886        2.63708378015372        1.34687153978199
C           -2.17318276318813        1.37925737904965        1.82021126481320
C           -1.60335011163924        0.37494106149460        0.97479904002621
C           -1.63703618609772        0.53312981619835       -0.49356160154273
C           -0.46703949931856        0.50641114620213       -1.22737140118973
C           -0.47753289575149        0.75587416427172       -2.60995431121547
C           -1.64396758685841        1.02315380553876       -3.25992382364485
C           -2.87357842475474        0.98538954599347       -2.57590353733564
C           -4.08520036975865        1.19339334168180       -3.26484746364861
C           -5.28198815110031        1.10242589007919       -2.61616033285755
C           -5.30221037240684        0.78191194010149       -1.25144839272459
C           -4.14069934621928        0.59314197495117       -0.55113308461933
C           -2.88178164011711        0.71200021400006       -1.17790722097938
N            0.78246107787262        0.25221872038161       -0.57177864171051
C            1.96487771277785        0.88029979472187       -1.15656375297232
P            1.04009529663556       -1.31086026477463       -0.04232155272582
S            2.68494255311298       -1.27165572786052        1.31515035476446
S            2.03833069783521        0.00408287280037        2.78646737892440
C            2.63895510436917        1.58958810491000        2.22126058442379
C            1.70606015934393        2.57608158241922        1.94524526908038
C            2.13778630732531        3.81371427128264        1.50053733608718
C            3.48622871821545        4.06870978461361        1.32677617008382
C            4.39813502070552        3.06960177149447        1.62821429737436
F            5.70505616315797        3.30527706373684        1.46823643326848
C            3.99799739608890        1.82545555846336        2.08296533394811
N            1.30461836539448       -2.32638048652757       -1.33769860387894
C            0.07664820449021       -2.66138521214918       -2.05721581494871
C            2.52890825887056       -3.10927004452862       -1.67864958054415
C            3.74269289905410       -2.18160654322814       -1.72590530167965
C            2.40218079479973       -3.73143708042712       -3.07446419756991
C            2.73121667425750       -4.22951355490260       -0.66172839546360
H           -0.10264953704989       -3.77203949521983        0.41196416222002
H            0.30309301589719       -3.26968358920706        2.05763552554831
H           -1.39615800300821       -3.35074160070904        1.54441803881459
H           -0.75029696376929       -1.86609665924017        3.38386472154263
H           -1.89430380904408       -0.27786126342877        4.79455366194374
H           -2.93661779931723        1.89262222745900        5.11892286450882
H           -3.71666384348402        4.04097680903124        4.22258907757428
H           -3.45373150014820        4.52627525384475        1.81023949792673
H           -2.49917384377233        2.88274529377234        0.30153260486196
H            0.43928034410439        0.75142146346680       -3.17535944469399
H           -1.63355893494511        1.24237150018069       -4.31567544488117
H           -4.04945029080909        1.41488081944192       -4.32041919419767
H           -6.20428895966806        1.26064587830692       -3.15408323207250
H           -6.25163010487767        0.67730764246020       -0.74941133295504
H           -4.19884596042822        0.33324175731340        0.49429030424813
H            1.76088319934178        1.93870620436388       -1.30153114585567
H            2.25290979333892        0.43518008410305       -2.11255032646610
H            2.80821938203104        0.77555368499367       -0.47242150330979
H            0.65470643208330        2.37725263273711        2.08157788667178
H            1.41388922878249        4.58061678614380        1.27992472056755
H            3.83858295874945        5.02344999170574        0.97108967189658
H            4.73604072442676        1.07385514080357        2.31766268347531
H            0.17383236857768       -2.38024356689751       -3.10419737333008
H           -0.76982043683082       -2.11254150912937       -1.63911425234610
H           -0.13903842139992       -3.72832161586841       -1.99713806693524
H            3.94746194027234       -1.71850347782695       -0.76381269031436
H            4.61734252531381       -2.75893875478894       -2.01127713709875
H            3.59893243075220       -1.40724181696202       -2.47531928566837
H            2.23728364641664       -2.97760691028317       -3.83755085810572
H            1.61744347347427       -4.47652231110976       -3.13238476983120
H            3.34007630867434       -4.22934033907259       -3.30200409426035
H            1.86814980073380       -4.89105937978161       -0.65203608310716
H            3.60142017768431       -4.81876844397098       -0.93131748966292
H            2.88356942966401       -3.82637524027663        0.33815477184205
74
 energy: -110.252944594044 gnorm: 0.011358159317 xtb: 6.7.1 (edcfbbe)
C           -0.38753016431352       -3.10641846902767        1.20953044553143
N           -0.37082777757695       -1.72524868715074        0.72659665346333
C           -1.02260161692835       -0.74526639411084        1.55082596504050
C           -1.13342848733338       -0.97508607945910        2.93517198818196
C           -1.77131699125860       -0.07846600916908        3.73771056108779
C           -2.26804940417138        1.13172315139345        3.21346817921767
C           -2.84756806174153        2.10522921625186        4.05295412426803
C           -3.27776447276033        3.29698717664509        3.54500795306628
C           -3.13494790733835        3.55791132856570        2.17307193923531
C           -2.59980541114996        2.62415959620206        1.32935487996139
C           -2.16293682470430        1.37251151094055        1.81564288930701
C           -1.59143724771622        0.37040066539477        0.97398550920888
C           -1.62613796000588        0.53298847703633       -0.49685058364964
C           -0.45993124269579        0.51126002398055       -1.22871690159649
C           -0.46872612047503        0.75657643923547       -2.61385585193272
C           -1.63783124348126        1.01968077252763       -3.26091860398753
C           -2.86630373710929        0.98267127035215       -2.57182648051720
C           -4.08309073382893        1.18990552632999       -3.25309977950611
C           -5.27494792596573        1.09791898253067       -2.59468763845563
C           -5.28782343900776        0.78065679080460       -1.22730494090607
C           -4.12349042984619        0.59580829890821       -0.53398771691111
C           -2.87084043746956        0.71083789618321       -1.17508168201483
N            0.78830683469278        0.26905961137008       -0.56299138592239
C            1.96801556536594        0.90581688033159       -1.14206718401465
P            1.03789837310323       -1.30527708440959       -0.05694091251293
S            2.69504553313573       -1.27550310332961        1.27953439113839
S            2.00496196496833       -0.01161051843527        2.74076687260971
C            2.61745195962004        1.58093479771592        2.19834288591941
C            1.68833389311358        2.57285386424955        1.92968089475052
C            2.12871611483474        3.81384701710026        1.50035951164969
C            3.47946726208207        4.06301863748718        1.33287292505860
C            4.38517733005153        3.05600124752355        1.62797665493530
F            5.69430460695497        3.28672060368980        1.47466550464253
C            3.97878762066879        1.80852690566820        2.07016887068845
N            1.30116107839725       -2.32464578130828       -1.34553280691259
C            0.06539071666707       -2.65459916027664       -2.05928180217875
C            2.52503836131578       -3.11117461749738       -1.67507229837566
C            3.73483559243632       -2.17915094815411       -1.70817829843435
C            2.39801510068828       -3.73073706685548       -3.06939820823524
C            2.72461576904199       -4.22342223525336       -0.64834180667994
H           -0.10697839257051       -3.76801223792499        0.39254137738011
H            0.30043666543482       -3.27805480870542        2.04216980053944
H           -1.39964626259851       -3.34813058553834        1.52857919550346
H           -0.72019432089774       -1.86699715606579        3.37448101347572
H           -1.88089845629066       -0.27542484787537        4.79235613650099
H           -2.93000709546911        1.88967889158530        5.10739243518064
H           -3.71502614901355        4.04025385913780        4.19344744560345
H           -3.45196134259263        4.51354784434117        1.78490298004502
H           -2.49608147641618        2.85349147476780        0.27965053649917
H            0.45196144088149        0.74976343335366       -3.17231256961044
H           -1.63703249208085        1.23825615790438       -4.31731001877391
H           -4.04775056933877        1.41094411014102       -4.30911254668848
H           -6.20283527351503        1.25450649919601       -3.12251841060672
H           -6.23565285179549        0.67831439548922       -0.72205597597765
H           -4.16550368488069        0.34507080649564        0.51494437351271
H            1.75431366857190        1.96285536539769       -1.28478293499472
H            2.26567475494818        0.46572981647251       -2.09699413825154
H            2.80415335178406        0.80544693100988       -0.45088984381018
H            0.63690374071348        2.37302621842215        2.06123852804751
H            1.41009047022956        4.58877913266436        1.28790947165700
H            3.83925315499841        5.01846770288441        0.98697320336243
H            4.71121288880008        1.05076571763201        2.30118882808401
H            0.15097645773464       -2.37797584770449       -3.10911990705375
H           -0.76821156497939       -2.09612240695355       -1.63131857391552
H           -0.16296287940478       -3.71916988365742       -1.99573178427787
H            3.92245276180881       -1.72116315045104       -0.74052044397048
H            4.61763521942598       -2.74904419911723       -1.98321032305757
H            3.59275810111404       -1.40184472032796       -2.45427145029619
H            2.23149814738756       -2.97220822354721       -3.82821222561919
H            1.61085439867224       -4.47417086613399       -3.12668594290996
H            3.33503050545489       -4.22868826082056       -3.30056804971286
H            1.86506975605906       -4.88912567324851       -0.63526751326126
H            3.59950650319611       -4.81129942272563       -0.90764228524237
H            2.87277278436850       -3.80886360007909        0.34719289642122
74
 energy: -110.254100031986 gnorm: 0.009987869424 xtb: 6.7.1 (edcfbbe)
C           -0.38736728651484       -3.11050345412448        1.18599761086861
N           -0.35717954360095       -1.72571275109821        0.71639429095849
C           -1.00310049939031       -0.74900110805282        1.54536775340969
C           -1.10724769834679       -0.97724934462141        2.93200139672565
C           -1.74647999965185       -0.07859835821191        3.73270504614934
C           -2.24923422542132        1.12804445747684        3.20422143613925
C           -2.83583476436372        2.10440099968553        4.03608147792241
C           -3.27001187502518        3.29130707089615        3.51727012775346
C           -3.12868231151520        3.54698084446225        2.14378307248930
C           -2.58751905273734        2.61044061524689        1.30783789759160
C           -2.14466716725341        1.36605254883266        1.80852380970981
C           -1.57102193087028        0.36555930651231        0.97011258512623
C           -1.60951348969721        0.52878621106442       -0.49962314907809
C           -0.44523325724050        0.51446972870840       -1.23287586572382
C           -0.45715137720384        0.75652957976860       -2.61979493830821
C           -1.63224397000642        1.01224308201829       -3.26161048245845
C           -2.85742273788231        0.97451741288363       -2.56513634204315
C           -4.08106380637280        1.18203172227418       -3.23524819783134
C           -5.26686770746231        1.09100397997437       -2.56344064506807
C           -5.27102148041361        0.77862902657777       -1.19439351606654
C           -4.10063646126139        0.59427255959669       -0.51213330879545
C           -2.85577347933683        0.70452333720291       -1.17054181945722
N            0.80024739698540        0.28464251741115       -0.55508390193637
C            1.97485377653540        0.94217004188847       -1.12009394187668
P            1.04252337545439       -1.30001016230381       -0.07535240837373
S            2.67249809172252       -1.26766752750359        1.27847587605267
S            1.96532853722101       -0.01176520299220        2.73411973077116
C            2.58526643356704        1.57164895694472        2.17556460720098
C            1.66248085558397        2.57120824482588        1.91183192622642
C            2.11445668070882        3.81469180845641        1.49925003238022
C            3.46866501677036        4.05421751611104        1.34045618713421
C            4.36558255210632        3.03570949670742        1.62391343552344
F            5.67767218584743        3.25862278069983        1.47884229489991
C            3.94872926020695        1.78590128914771        2.05118628151233
N            1.29294800219148       -2.32335967693871       -1.35574267347003
C            0.05078705716962       -2.64595914900629       -2.06610885398136
C            2.51683487449870       -3.11208569978301       -1.67147689104904
C            3.72596098519087       -2.17923392652311       -1.69655778094051
C            2.39205655093848       -3.73228580433387       -3.06377306612522
C            2.71183254003071       -4.21600583473348       -0.63352532918180
H           -0.11382542925005       -3.76694150393465        0.36353149601500
H            0.29807112106029       -3.29509288824502        2.01758630774877
H           -1.40275869512839       -3.34446938106294        1.50244555686354
H           -0.68246809662713       -1.86647727584285        3.36584111474439
H           -1.85429771507598       -0.26851296330794        4.78938851782593
H           -2.92043325395386        1.89135335295406        5.09132945753302
H           -3.71288746976514        4.03952884384659        4.15590945827051
H           -3.45297812847511        4.49838476919196        1.75083523592717
H           -2.48393851717722        2.82248002215099        0.25415945169409
H            0.46628284638884        0.75056859196196       -3.17380214634898
H           -1.64210020923594        1.22842809978132       -4.31915728076220
H           -4.05203332024878        1.40393809932466       -4.29171355791902
H           -6.20192561721901        1.24625621677975       -3.07877986418986
H           -6.21575693117888        0.68215907273324       -0.68185359917034
H           -4.12348623077086        0.35191820305614        0.53982063247533
H            1.74383728017325        1.99723986899791       -1.25820561945583
H            2.28905291958628        0.51392623533743       -2.07500525565344
H            2.80442684828956        0.85464537897169       -0.42086926386756
H            0.60955260382770        2.37310098275111        2.03584918709248
H            1.40320582824260        4.60000861723603        1.29626680515615
H            3.83878159584970        5.01152640060759        1.00967390578449
H            4.67317307274078        1.01871806569833        2.27665979268987
H            0.12787019625240       -2.37414726108142       -3.11843570606579
H           -0.77122735199806       -2.07696720735963       -1.63279227830124
H           -0.19122748488746       -3.70777209824665       -1.99684610053305
H            3.90450774917480       -1.72691974258528       -0.72658918399941
H            4.61538422259408       -2.74350911577727       -1.96238721616092
H            3.58696295289206       -1.39706578700352       -2.43827526497130
H            2.22340049991090       -2.97045630733113       -3.81988852725613
H            1.60219110793021       -4.47428267943188       -3.11926940887325
H            3.32826931678481       -4.23096903107471       -3.29859194928921
H            1.85645116735218       -4.88735028369123       -0.61684172647857
H            3.59314101871705       -4.80203930130108       -0.87932978417326
H            2.85333005206320       -3.79037212925161        0.35791104886956
74
 energy: -110.254643528325 gnorm: 0.006465324350 xtb: 6.7.1 (edcfbbe)
C           -0.38818140491155       -3.11410083118162        1.16527436227300
N           -0.34444249728121       -1.72545267945567        0.71016597878809
C           -0.98830367793088       -0.75394361377934        1.54204247531127
C           -1.09042336107054       -0.97775984482769        2.92958561572719
C           -1.72515411488098       -0.07372335298727        3.72918735979572
C           -2.23038844038780        1.12983401530613        3.19710520494614
C           -2.82349626201660        2.10727324286317        4.02307693230261
C           -3.26409770969014        3.28948434169056        3.49684252036576
C           -3.12323368398960        3.54254298120636        2.12374471529516