88
 energy: -126.246198411206 gnorm: 0.000024879330 xtb: 6.7.1 (edcfbbe)
C           -4.08971224454467       -0.79327268179722        2.19098869242671
C           -3.81585808365638       -0.69118757532486        0.69440344629154
C           -4.52488212048771        0.52202376696959        0.10079387843309
N           -2.37345157565882       -0.73672664299042        0.39075872772832
C           -1.91696489895044       -1.85884332563243       -0.45767635150018
C           -2.00457470540390       -3.20183477760712        0.27196722473003
C           -1.79730167317636       -4.34211026202047       -0.71776662954071
C           -2.95506588861381       -4.36669126378305       -1.70556588846056
C           -3.12546425681045       -3.03161724225653       -2.37010753898792
C           -3.77060391871184       -2.95790282360320       -3.60060712093915
C           -3.93155821423850       -1.75489716068294       -4.25892852887572
C           -3.43088162140124       -0.59496082365091       -3.69193386537542
C           -2.79255919489878       -0.65788973160743       -2.46899062148499
C           -2.64473129383642       -1.86134415247006       -1.78677589959030
P           -1.19182856060360        0.33762141312243        0.80791388528734
S           -2.11875158885723        2.06828194853015        1.62472469554001
S           -0.57252772536192        3.02579041671688        2.56511767776695
C            0.04784619773463        4.12716218186220        1.30406164989795
C            1.41110387288262        4.12743942576066        1.05606732223428
C            1.92135335060524        4.99459535015447        0.10527456257461
C            1.07339842510239        5.84172801460820       -0.58996562151663
C           -0.28844780232860        5.83284287102020       -0.33014860729459
C           -0.80905681293998        4.97946887676720        0.62618773721475
N           -0.19689151930703        0.85321841261251       -0.41300797347760
C           -0.49282112980681        2.01172200618757       -1.24584971576467
C            0.80012171701458       -0.05108354418236       -0.90840580322549
C            0.67362359409067       -0.60381950762979       -2.19853627332711
C            1.60626637380992       -1.48534752379409       -2.66003482187927
C            2.68478211259835       -1.89181672125195       -1.84624543744631
C            3.62425765994230       -2.84468065045293       -2.29033246137091
C            4.64535387392672       -3.24952956469872       -1.47693727481171
C            4.75840923693989       -2.72821613924987       -0.17981957660949
C            3.86881365058280       -1.79490713703631        0.27657896391504
C            2.82042781192270       -1.33452778963419       -0.54781720893098
C            1.87880006526507       -0.35679080143779       -0.11271524010162
C            2.06505665503926        0.32279044259542        1.17883779470221
C            1.10285961959997        0.24566806204285        2.16136931827008
C            1.36320551219437        0.74638277698417        3.45226214383301
C            2.54596909098838        1.36535767945817        3.72982777444040
C            3.51000242322304        1.57014206157918        2.72050497409399
C            4.69797059439952        2.28891827678724        2.96567433400875
C            5.59560593255547        2.51535648609728        1.95993714292444
C            5.33571191138917        2.03942944540647        0.66625466679354
C            4.19993170563388        1.32514312413302        0.40047853241235
C            3.26373360507921        1.05455093429411        1.42113376204016
N           -0.14391424162435       -0.39937274446635        1.87454961517006
C           -0.71649986214819       -1.17767113834542        2.96694419957215
H           -5.16138612120759       -0.74715154033565        2.36369799039792
H           -3.72582425367790       -1.73281722848332        2.59907865616443
H           -3.62591286613697        0.03215790432861        2.72523293213599
H           -4.22747353402972       -1.57649271125661        0.19953703524929
H           -5.59360111467331        0.42217466574004        0.27183815750311
H           -4.36049678070038        0.58280543539296       -0.97053325638321
H           -4.19495618028724        1.44549132314842        0.56966085124401
H           -0.85229915756914       -1.67729249387968       -0.65905290197719
H           -2.98110493876613       -3.31683144099614        0.74552202738090
H           -1.23630080784412       -3.24543252446423        1.04491753079103
H           -0.85594122674036       -4.19601083303388       -1.25226687881862
H           -1.73936814038459       -5.29017772281965       -0.18248626471800
H           -2.79147797650414       -5.13304222390561       -2.46466061971871
H           -3.87960704422172       -4.62579322280468       -1.17944698506128
H           -4.14679927957512       -3.86718199089884       -4.04514055343272
H           -4.43517728017115       -1.72081212172893       -5.21215946329274
H           -3.53612384734315        0.35170493732576       -4.20007007657927
H           -2.40583004684239        0.24747129167661       -2.02306987014191
H            2.06041310423779        3.46468897257848        1.60595217827865
H            2.98265739604236        5.00213778897596       -0.08955559880767
H            1.47407663826723        6.51513059163876       -1.33149856533926
H           -0.94772853798088        6.49943406362085       -0.86390790292758
H           -1.86715035933381        4.97142875745049        0.84319010549206
H           -1.38552515580724        2.51832075638031       -0.88074665780604
H            0.34988062183306        2.70588790282261       -1.20766942619146
H           -0.65702608595022        1.72958160863094       -2.28588385886515
H           -0.17008370008585       -0.34062814776504       -2.81739153536232
H            1.51467068689131       -1.90002992499333       -3.65229186571664
H            3.51543568907355       -3.25170415421445       -3.28454436236423
H            5.36253232306639       -3.97813346281581       -1.82192874176758
H            5.55473984646449       -3.07223954477306        0.46219909621058
H            3.96010718591912       -1.41008852784015        1.28049931080937
H            0.62074556462326        0.65123192389959        4.22731097547091
H            2.74389416391135        1.73454973730764        4.72427497415899
H            4.87643787677230        2.66606718881933        3.96153121141832
H            6.50203186408970        3.06847562427403        2.15145774130183
H            6.04067861890851        2.24362792464002       -0.12513034663656
H            4.00496593252190        0.97400760387259       -0.60119986571942
H           -1.52593314383421       -1.78820433375409        2.57766075125632
H           -1.11201085402782       -0.55826870653391        3.77512511181607
H            0.06161586187441       -1.82663939327873        3.36750269866408
