83
 energy: -128.208369088384 gnorm: 0.000050968648 xtb: 6.7.1 (edcfbbe)
C           -1.76457224265037       -4.71764486396356       -0.62661601758058
C           -2.32467423161175       -3.71448010530761        0.37424545192726
C           -3.58736849873721       -3.03723570392766       -0.15300136216940
N           -1.28477082509872       -2.76796247494923        0.84288201553472
C           -1.02986655428830       -2.79012121016733        2.32266159500780
C           -2.22440952550930       -2.17137498228606        3.05227979343200
C           -0.81788797267609       -4.23335859756196        2.80729169518263
C            0.22694156863872       -2.00641018087001        2.69399858507108
P           -0.60877008511631       -1.62185255448580       -0.14172179195272
S           -1.37835513030562       -1.81641643324665       -2.15271808357684
S           -0.44000071725899       -0.31919416003699       -3.17165603414231
C           -1.57531012797870        1.04809874983793       -3.00051628030035
C           -2.89855322494237        0.95161233379092       -3.40597460644863
C           -3.73507137380620        2.04383527017068       -3.25582130217609
C           -3.26045960267959        3.22297417602217       -2.70144601206875
C           -1.93277571945909        3.30214546194747       -2.30606091832330
C           -1.37362340693615        4.53204990236792       -1.64317040733881
F           -0.96206797685450        4.24322108994006       -0.38731957301419
F           -2.25400141473212        5.52649639765205       -1.53679995033766
F           -0.29960695322856        5.01441612509427       -2.28203501196094
C           -1.07743621613886        2.21958056835598       -2.45822543567121
N           -0.91670925194105       -0.01562730403172        0.19054937975998
C           -2.31713303308980        0.38931385763025        0.13323310225930
C           -0.05134486877685        0.76556547366958        1.01418402114690
C           -0.55767055457153        1.38830355876793        2.17296228367313
C            0.26680015387438        2.11134773108932        2.98417780131767
C            1.64729123939262        2.20229420066462        2.71664502185119
C            2.52404900040910        2.88696262879910        3.58291840812534
C            3.86300010273536        2.94480852776201        3.31644852076869
C            4.37997141681281        2.30770026252471        2.17862508673856
C            3.55340976312667        1.64627853843526        1.31310163011125
C            2.16246984284741        1.58920113386887        1.54532629926929
C            1.27075038611316        0.91793110855047        0.65858700074821
C            1.77985282486136        0.45866405543798       -0.64558086798475
C            1.74291030448561       -0.86627920963467       -1.01994316347166
C            2.38479562927891       -1.29615944767073       -2.19780893112113
C            2.99990379738495       -0.39504475860048       -3.01680876775428
C            2.95620343702832        0.98509302962204       -2.73568439170440
C            3.50219736576991        1.93724532625773       -3.62095419745487
C            3.41513197394805        3.27365214953059       -3.34907523683380
C            2.77399581159556        3.71240448978857       -2.18103022387114
C            2.25098048969522        2.81300449625466       -1.29306148680732
C            2.33703313356677        1.42330915867272       -1.53618755682573
N            1.04439000096601       -1.80262330815232       -0.18833568176271
C            1.54951717684561       -3.17328478103379       -0.20247649556987
H           -2.53832610683689       -5.43582510157434       -0.88384413316493
H           -0.92516469288678       -5.26128530107424       -0.20144148620160
H           -1.44286833233395       -4.22745173921902       -1.54146802784789
H           -2.62073119377018       -4.27386165273147        1.26040655579152
H           -3.45410880830722       -2.66406321207221       -1.16360982956595
H           -4.39348664718947       -3.76656180155725       -0.17489607918128
H           -3.88963655589663       -2.21883170956771        0.49508457592025
H           -2.29139921269076       -1.10717919670451        2.84040009869188
H           -2.09773588565198       -2.29372737325431        4.12454345184875
H           -3.15907286593310       -2.64730549744386        2.76898111292535
H           -0.20213547429925       -4.79962841312412        2.11375110267419
H           -0.30411251065976       -4.20755246176788        3.76443566413014
H           -1.75039264775885       -4.76894011372288        2.96037912080026
H            0.22062590558304       -0.99838402119573        2.29435558301394
H            1.13188253723366       -2.50979421136404        2.36902865220155
H            0.27041604491011       -1.91965924609331        3.77760392221324
H           -3.26646965476891        0.03006403709407       -3.83183939927545
H           -4.76298478254527        1.97806005727798       -3.57494257941327
H           -3.91311448836001        4.07300009199007       -2.57861289647924
H           -0.04321654181075        2.29066144633327       -2.15693462356544
H           -2.79439403301663       -0.06185088555066       -0.73664671702360
H           -2.35965847321264        1.47294584698307        0.03140527111033
H           -2.88529391475041        0.09441545595425        1.01856556973120
H           -1.60339029417399        1.30269284837333        2.41875831744436
H           -0.13106781594734        2.60615794033515        3.85660248168571
H            2.11484889074685        3.35828462638452        4.46389770331132
H            4.53069784312364        3.47025816640212        3.98146626049598
H            5.44209168649632        2.33994680652441        1.98991614692585
H            3.96617301889271        1.15094215916293        0.44777461340985
H            2.38794902662014       -2.33998126366442       -2.46400540953080
H            3.50256716886759       -0.73091006796201       -3.91049168026317
H            3.97972588343564        1.58641144812337       -4.52348883126217
H            3.82884931944275        3.99895798627364       -4.03210097545634
H            2.68592411440063        4.77003069469666       -1.98833310839605
H            1.75168829346301        3.16689082141068       -0.40369911008655
H            2.62012034337061       -3.14064716103720       -0.00443725552263
H            1.37753301136207       -3.68616796461455       -1.15154457733507
H            1.05851393385025       -3.74255176462320        0.58168461149706
