91
 energy: -132.637701951973 gnorm: 0.000040569826 xtb: 6.7.1 (edcfbbe)
C           -4.38150283517298        1.24185651074813        0.15895259596668
C           -3.66528484365901        0.15675112752780       -0.63941937889369
C           -3.79317091145407       -1.21486525146075       -0.01870806293334
C           -3.65658618772537       -1.43452781247240        1.34637001758972
C           -3.78622377197012       -2.71087276627046        1.86956993165063
C           -4.06252543937250       -3.78352681046819        1.03946840761626
C           -4.21342414641240       -3.57311001117196       -0.32107295761430
C           -4.07934154894436       -2.29951544455289       -0.84391541825568
N           -2.25589739287149        0.50928871213168       -0.91758574782933
C           -1.92696921665450        0.91988425012580       -2.30336008319250
C           -2.68890792907698        2.17380816108963       -2.71718326571437
C           -2.08726036146317       -0.25280136067385       -3.24399095071185
C           -3.24623587558531       -0.49781816658236       -3.96989375604373
C           -3.34081427193700       -1.61599215228193       -4.78254061804431
C           -2.28178517847893       -2.50103219797967       -4.88106782589153
C           -1.11624096353028       -2.25672214132650       -4.17397079667661
C           -1.02152853065650       -1.13967781454799       -3.36460231829293
P           -1.03167145721074        0.39551283222273        0.17184549953454
S           -1.65820946332987        1.23631992363562        2.05445912131158
S            0.01423096204880        1.33773752623372        3.21801057970404
C            0.61262573489424        3.00054758901330        2.96675269923089
C           -0.24757244059338        4.08689460386549        2.97558684541153
C            0.27259507465904        5.35823786155625        2.81105407704480
C            1.63843163175316        5.53892198280487        2.65932481533001
C            2.49038868807204        4.44609441607721        2.66666454400385
C            1.98075221024731        3.16756508397308        2.81393281962292
N            0.27512923793258        1.33326339078824       -0.22526006388128
C            0.13665588170461        2.78223245343383       -0.27358570835473
C            1.42888255714464        0.75267860509791       -0.83995460880906
C            1.83388464171795        1.21397240255991       -2.10740533740010
C            2.93025897507644        0.68406374993342       -2.72185909231958
C            3.65680880143436       -0.36428078244570       -2.12273417073051
C            4.76141101466303       -0.95708845400029       -2.76855207457625
C            5.43404500695853       -1.99526679074832       -2.18835806653181
C            5.01600586470604       -2.49285574275388       -0.94525546071133
C            3.95463266274932       -1.93252455100921       -0.28977771317548
C            3.25736759932682       -0.83771518195130       -0.84551971057015
C            2.15508315582418       -0.22021409900122       -0.18448540465849
C            1.79319166741450       -0.66903176036592        1.17300601320459
C            0.54448599536065       -1.20358960950530        1.39315531513339
C            0.19253875473524       -1.79093122457796        2.61894805021451
C            1.09328902511307       -1.79775017293337        3.64477403731634
C            2.35085370812740       -1.17182080663485        3.50303427941750
C            3.25718689358700       -1.09238229195982        4.58071764218606
C            4.45604285255392       -0.45083711722868        4.44151981095436
C            4.79975590160272        0.14420999278005        3.21820877379897
C            3.95025541511465        0.07417715182199        2.14859615500142
C            2.71209070348695       -0.59452363564992        2.25604399980073
N           -0.41214201338465       -1.12121222086049        0.33068680217941
C           -0.84204448438560       -2.36307216109553       -0.27910460777787
H           -5.42197648926987        0.95500824779878        0.29068571326517
H           -3.93685622180892        1.38124802207714        1.14008129223202
H           -4.34625934809984        2.19111467047491       -0.36840235051755
H           -4.13538773185157        0.09665524661694       -1.62448857560557
H           -3.47929634126874       -0.61071204449321        2.01876469924942
H           -3.68700453322950       -2.86263766402816        2.93423216898750
H           -4.17255479902343       -4.77481477056434        1.45131978561693
H           -4.44375701212216       -4.39935972525447       -0.97564011108624
H           -4.20297137901158       -2.14535558796383       -1.90683303517357
H           -0.86034464069756        1.16058452835078       -2.29686616327510
H           -2.37891623003194        2.46102923678184       -3.71917444773023
H           -3.76353876966150        2.02255384614504       -2.72482183601854
H           -2.46490915223337        2.99045608105042       -2.03420901714338
H           -4.08049907460649        0.18571918564870       -3.92752956531859
H           -4.24690385282633       -1.79200552641029       -5.34189528734762
H           -2.35947889657326       -3.37064551722206       -5.51464658656701
H           -0.27802539873922       -2.93139775890567       -4.25758887473778
H           -0.10259553588286       -0.94252907096512       -2.82634647202531
H           -1.30900997273661        3.93651230881166        3.10780024257775
H           -0.39061079384938        6.20925884434072        2.81521377524555
H            2.03933137023960        6.53350855877890        2.54141075371887
H            3.55455624564501        4.58555338197754        2.55498468923177
H            2.63104493808416        2.30556918493882        2.82136693827120
H           -0.02346809137468        3.15874251043086       -1.28532722853602
H            1.03724264362134        3.24414153766769        0.13337852787763
H           -0.71825983876771        3.07798796158716        0.33547033612704
H            1.27780712413018        1.99834967823996       -2.59714969879066
H            3.24103442933677        1.05112439380203       -3.68805538257473
H            5.05885417015805       -0.57645709064560       -3.73424918292643
H            6.27950263467068       -2.44534549263466       -2.68513318947383
H            5.53761586671125       -3.32973844548786       -0.50670253149117
H            3.63770211771871       -2.33621188567447        0.65932827415501
H           -0.79198563583271       -2.22023269346405        2.72991591238961
H            0.84248045863190       -2.25336435824657        4.59010029413686
H            2.97887802468656       -1.54089068668173        5.52245956643934
H            5.14255398643229       -0.39087767797274        5.27178188250607
H            5.74191269788317        0.66296384685458        3.12666889447884
H            4.21597052067912        0.53906512638942        1.21069706218245
H           -1.32784051331702       -3.02090509748757        0.44317352732156
H           -1.53390191176476       -2.15266061291526       -1.09071020992911
H            0.03632458212994       -2.86946948678694       -0.68458122391216
